V -t * -v 1.0a5 -a 0
W -t * -x 1000 -y 500
A -t * -n 1 -p 0 -o 0x7fffffff -c 30 -a 1
A -t * -h 1 -m 1073741823 -s 0
n -t 0.000000 -s 0 -x 107.286347 -y 220.297515 -U 14.464325 -V 3.280746 -T 60.397147
n -t 0.000000 -s 1 -x 677.207962 -y 371.383488 -U 10.373675 -V -13.346472 -T 13.258333
n -t 0.000000 -s 4 -x 776.231192 -y 449.970965 -U -10.947789 -V 0.341643 -T 40.072849
n -t 0.000000 -s 6 -x 874.056346 -y 220.838185 -U -13.834076 -V -6.258835 -T 15.776883
n -t 0.000000 -s 7 -x 435.693360 -y 496.810817 -U 11.177357 -V -14.840510 -T 3.252777
n -t 0.000000 -s 8 -x 248.592670 -y 71.072296 -U 8.717492 -V 7.267323 -T 27.198862
n -t 0.000000 -s 9 -x 289.452711 -y 47.376920 -U 16.584313 -V 4.414039 -T 34.263686
n -t 0.000000 -s 10 -x 381.697482 -y 348.743126 -U 15.557977 -V -4.354939 -T 13.185919
n -t 0.000000 -s 12 -x 453.310080 -y 333.316285 -U -12.195211 -V 4.357508 -T 14.084402
n -t 0.000000 -s 16 -x 208.233280 -y 456.534575 -U 14.875084 -V 2.245925 -T 13.093014
n -t 0.000000 -s 17 -x 849.830233 -y 92.375024 -U -15.332852 -V -1.302327 -T 21.897949
n -t 0.000000 -s 18 -x 899.697289 -y 22.223799 -U -15.038753 -V 8.643747 -T 29.168630
n -t 0.000000 -s 20 -x 863.444541 -y 33.971760 -U -18.738110 -V -0.052099 -T 30.939993
n -t 0.000000 -s 21 -x 266.046153 -y 181.035680 -U 10.589355 -V 9.547569 -T 27.501645
n -t 0.000000 -s 22 -x 467.546462 -y 132.908255 -U -17.354134 -V -3.893867 -T 20.623574
n -t 0.000000 -s 23 -x 983.771833 -y 319.204442 -U -15.573735 -V -5.001513 -T 34.433927
n -t 0.000000 -s 24 -x 149.105846 -y 176.664362 -U 13.085703 -V -0.212587 -T 55.741014
n -t 0.000000 -s 25 -x 941.835357 -y 218.200267 -U -14.989062 -V 3.466762 -T 52.701813
n -t 0.000000 -s 26 -x 820.270942 -y 0.730637 -U 5.141945 -V 10.027955 -T 32.990946
n -t 0.000000 -s 27 -x 603.400596 -y 382.028184 -U -14.047021 -V 1.817350 -T 15.242450
n -t 0.000000 -s 28 -x 414.669812 -y 59.720244 -U 13.986434 -V 3.954716 -T 24.986256
n -t 0.000000 -s 29 -x 687.038189 -y 442.779511 -U -13.832743 -V -4.019017 -T 35.809696
n -t 0.000000 -s 31 -x 487.945864 -y 15.544219 -U -7.637055 -V 9.592487 -T 35.323720
n -t 0.000000 -s 33 -x 540.539141 -y 354.704368 -U -12.966430 -V -2.146255 -T 16.002077
n -t 0.000000 -s 36 -x 333.964452 -y 409.672422 -U 15.827833 -V -6.522127 -T 13.294648
n -t 0.000000 -s 37 -x 997.243680 -y 399.819503 -U -8.657272 -V -12.907643 -T 28.689377
n -t 0.000000 -s 38 -x 709.864287 -y 301.275566 -U -12.223280 -V 2.436511 -T 55.568270
n -t 0.000000 -s 39 -x 557.219335 -y 386.899780 -U -0.939505 -V -14.499556 -T 20.154122
n -t 0.000000 -s 40 -x 297.297735 -y 159.164948 -U 14.230228 -V 5.760288 -T 46.589004
n -t 0.000000 -s 41 -x 409.684798 -y 344.664185 -U -13.299660 -V 6.574662 -T 13.923101
n -t 0.000000 -s 42 -x 774.613599 -y 451.990935 -U -10.303028 -V -2.728849 -T 58.884911
n -t 0.000000 -s 45 -x 14.267009 -y 468.387551 -U 8.881507 -V -11.939607 -T 35.389790
n -t 0.000000 -s 46 -x 95.542687 -y 498.848910 -U 10.395535 -V -7.952102 -T 60.502041
n -t 0.000000 -s 47 -x 909.987020 -y 461.580599 -U -8.744555 -V -8.174143 -T 17.146317
n -t 0.000000 -s 48 -x 50.131132 -y 228.614308 -U 15.171499 -V -0.560318 -T 57.752042
n -t 0.000000 -s 49 -x 328.440818 -y 427.543708 -U 7.596510 -V -11.740845 -T 23.821481
n -t 0.000000 -s 50 -x 262.704570 -y 173.124083 -U 7.151748 -V 17.903348 -T 12.285336
n -t 0.000000 -s 53 -x 595.986905 -y 397.188864 -U 8.963470 -V -9.253096 -T 14.955017
n -t 0.000000 -s 55 -x 944.106775 -y 346.755680 -U -15.813320 -V -7.948429 -T 22.012975
n -t 0.000000 -s 56 -x 343.328229 -y 402.966763 -U 0.362272 -V -12.524514 -T 23.398026
n -t 0.000000 -s 57 -x 521.572621 -y 98.331739 -U 12.519392 -V 9.361189 -T 29.331013
n -t 0.000000 -s 58 -x 125.547108 -y 83.911676 -U 4.961657 -V 13.980524 -T 13.453579
n -t 0.000000 -s 59 -x 682.978428 -y 478.023282 -U -5.817488 -V -12.014860 -T 29.412752
+ -t 1.000000000 -s 0 -d -1 -p tcp -e 40 -c 2 -a 0 -i 0 -k AGT 
- -t 1.000000000 -s 0 -d -1 -p tcp -e 40 -c 2 -a 0 -i 0 -k AGT
h -t 1.000000000 -s 0 -d -1 -p tcp -e 40 -c 2 -a 0 -i 0 -k AGT
+ -t 1.000000000 -s 0 -d -1 -p AODV -e 48 -c 2 -a 0 -i 0 -k RTR 
- -t 1.000000000 -s 0 -d -1 -p AODV -e 48 -c 2 -a 0 -i 0 -k RTR
h -t 1.000000000 -s 0 -d -1 -p AODV -e 48 -c 2 -a 0 -i 0 -k RTR
+ -t 1.000375000 -s 0 -d -1 -p AODV -e 106 -c 2 -a 0 -i 0 -k MAC 
- -t 1.000375000 -s 0 -d -1 -p AODV -e 106 -c 2 -a 0 -i 0 -k MAC
h -t 1.000375000 -s 0 -d -1 -p AODV -e 106 -c 2 -a 0 -i 0 -k MAC
r -t 1.001223087 -s 3 -d -1 -p AODV -e 48 -c 2 -a 0 -i 0 -k MAC
r -t 1.001223189 -s 48 -d -1 -p AODV -e 48 -c 2 -a 0 -i 0 -k MAC
r -t 1.001223207 -s 24 -d -1 -p AODV -e 48 -c 2 -a 0 -i 0 -k MAC
r -t 1.001223221 -s 44 -d -1 -p AODV -e 48 -c 2 -a 0 -i 0 -k MAC
r -t 1.001223395 -s 13 -d -1 -p AODV -e 48 -c 2 -a 0 -i 0 -k MAC
r -t 1.001223420 -s 58 -d -1 -p AODV -e 48 -c 2 -a 0 -i 0 -k MAC
r -t 1.001223505 -s 50 -d -1 -p AODV -e 48 -c 2 -a 0 -i 0 -k MAC
r -t 1.001223528 -s 21 -d -1 -p AODV -e 48 -c 2 -a 0 -i 0 -k MAC
r -t 1.001223555 -s 5 -d -1 -p AODV -e 48 -c 2 -a 0 -i 0 -k MAC
r -t 1.001223662 -s 40 -d -1 -p AODV -e 48 -c 2 -a 0 -i 0 -k MAC
r -t 1.001223662 -s 8 -d -1 -p AODV -e 48 -c 2 -a 0 -i 0 -k MAC
r -t 1.001223790 -s 54 -d -1 -p AODV -e 48 -c 2 -a 0 -i 0 -k MAC
r -t 1.001248087 -s 3 -d -1 -p AODV -e 48 -c 2 -a 0 -i 0 -k RTR
r -t 1.001248189 -s 48 -d -1 -p AODV -e 48 -c 2 -a 0 -i 0 -k RTR
r -t 1.001248207 -s 24 -d -1 -p AODV -e 48 -c 2 -a 0 -i 0 -k RTR
r -t 1.001248221 -s 44 -d -1 -p AODV -e 48 -c 2 -a 0 -i 0 -k RTR
r -t 1.001248395 -s 13 -d -1 -p AODV -e 48 -c 2 -a 0 -i 0 -k RTR
r -t 1.001248420 -s 58 -d -1 -p AODV -e 48 -c 2 -a 0 -i 0 -k RTR
r -t 1.001248505 -s 50 -d -1 -p AODV -e 48 -c 2 -a 0 -i 0 -k RTR
r -t 1.001248528 -s 21 -d -1 -p AODV -e 48 -c 2 -a 0 -i 0 -k RTR
r -t 1.001248555 -s 5 -d -1 -p AODV -e 48 -c 2 -a 0 -i 0 -k RTR
r -t 1.001248662 -s 40 -d -1 -p AODV -e 48 -c 2 -a 0 -i 0 -k RTR
r -t 1.001248662 -s 8 -d -1 -p AODV -e 48 -c 2 -a 0 -i 0 -k RTR
r -t 1.001248790 -s 54 -d -1 -p AODV -e 48 -c 2 -a 0 -i 0 -k RTR
+ -t 1.001676501 -s 5 -d -1 -p AODV -e 48 -c 2 -a 0 -i 0 -k RTR 
- -t 1.001676501 -s 5 -d -1 -p AODV -e 48 -c 2 -a 0 -i 0 -k RTR
h -t 1.001676501 -s 5 -d -1 -p AODV -e 48 -c 2 -a 0 -i 0 -k RTR
+ -t 1.001911501 -s 5 -d -1 -p AODV -e 106 -c 2 -a 0 -i 0 -k MAC 
- -t 1.001911501 -s 5 -d -1 -p AODV -e 106 -c 2 -a 0 -i 0 -k MAC
h -t 1.001911501 -s 5 -d -1 -p AODV -e 106 -c 2 -a 0 -i 0 -k MAC
+ -t 1.002386745 -s 8 -d -1 -p AODV -e 48 -c 2 -a 0 -i 0 -k RTR 
- -t 1.002386745 -s 8 -d -1 -p AODV -e 48 -c 2 -a 0 -i 0 -k RTR
h -t 1.002386745 -s 8 -d -1 -p AODV -e 48 -c 2 -a 0 -i 0 -k RTR
r -t 1.002759596 -s 21 -d -1 -p AODV -e 48 -c 2 -a 0 -i 0 -k MAC
r -t 1.002759606 -s 50 -d -1 -p AODV -e 48 -c 2 -a 0 -i 0 -k MAC
r -t 1.002759691 -s 40 -d -1 -p AODV -e 48 -c 2 -a 0 -i 0 -k MAC
r -t 1.002759803 -s 54 -d -1 -p AODV -e 48 -c 2 -a 0 -i 0 -k MAC
r -t 1.002759942 -s 24 -d -1 -p AODV -e 48 -c 2 -a 0 -i 0 -k MAC
r -t 1.002759974 -s 8 -d -1 -p AODV -e 48 -c 2 -a 0 -i 0 -k MAC
r -t 1.002760054 -s 9 -d -1 -p AODV -e 48 -c 2 -a 0 -i 0 -k MAC
r -t 1.002760056 -s 0 -d -1 -p AODV -e 48 -c 2 -a 0 -i 0 -k MAC
r -t 1.002760060 -s 10 -d -1 -p AODV -e 48 -c 2 -a 0 -i 0 -k MAC
r -t 1.002760075 -s 3 -d -1 -p AODV -e 48 -c 2 -a 0 -i 0 -k MAC
r -t 1.002760076 -s 41 -d -1 -p AODV -e 48 -c 2 -a 0 -i 0 -k MAC
r -t 1.002760109 -s 56 -d -1 -p AODV -e 48 -c 2 -a 0 -i 0 -k MAC
r -t 1.002760115 -s 22 -d -1 -p AODV -e 48 -c 2 -a 0 -i 0 -k MAC
r -t 1.002760151 -s 12 -d -1 -p AODV -e 48 -c 2 -a 0 -i 0 -k MAC
r -t 1.002760155 -s 36 -d -1 -p AODV -e 48 -c 2 -a 0 -i 0 -k MAC
r -t 1.002760159 -s 58 -d -1 -p AODV -e 48 -c 2 -a 0 -i 0 -k MAC
r -t 1.002760183 -s 49 -d -1 -p AODV -e 48 -c 2 -a 0 -i 0 -k MAC
r -t 1.002760194 -s 28 -d -1 -p AODV -e 48 -c 2 -a 0 -i 0 -k MAC
r -t 1.002760202 -s 44 -d -1 -p AODV -e 48 -c 2 -a 0 -i 0 -k MAC
r -t 1.002760222 -s 32 -d -1 -p AODV -e 48 -c 2 -a 0 -i 0 -k MAC
r -t 1.002760245 -s 48 -d -1 -p AODV -e 48 -c 2 -a 0 -i 0 -k MAC
r -t 1.002784596 -s 21 -d -1 -p AODV -e 48 -c 2 -a 0 -i 0 -k RTR
r -t 1.002784606 -s 50 -d -1 -p AODV -e 48 -c 2 -a 0 -i 0 -k RTR
r -t 1.002784691 -s 40 -d -1 -p AODV -e 48 -c 2 -a 0 -i 0 -k RTR
r -t 1.002784803 -s 54 -d -1 -p AODV -e 48 -c 2 -a 0 -i 0 -k RTR
r -t 1.002784942 -s 24 -d -1 -p AODV -e 48 -c 2 -a 0 -i 0 -k RTR
r -t 1.002784974 -s 8 -d -1 -p AODV -e 48 -c 2 -a 0 -i 0 -k RTR
r -t 1.002785054 -s 9 -d -1 -p AODV -e 48 -c 2 -a 0 -i 0 -k RTR
r -t 1.002785056 -s 0 -d -1 -p AODV -e 48 -c 2 -a 0 -i 0 -k RTR
r -t 1.002785060 -s 10 -d -1 -p AODV -e 48 -c 2 -a 0 -i 0 -k RTR
r -t 1.002785075 -s 3 -d -1 -p AODV -e 48 -c 2 -a 0 -i 0 -k RTR
r -t 1.002785076 -s 41 -d -1 -p AODV -e 48 -c 2 -a 0 -i 0 -k RTR
r -t 1.002785109 -s 56 -d -1 -p AODV -e 48 -c 2 -a 0 -i 0 -k RTR
r -t 1.002785115 -s 22 -d -1 -p AODV -e 48 -c 2 -a 0 -i 0 -k RTR
r -t 1.002785151 -s 12 -d -1 -p AODV -e 48 -c 2 -a 0 -i 0 -k RTR
r -t 1.002785155 -s 36 -d -1 -p AODV -e 48 -c 2 -a 0 -i 0 -k RTR
r -t 1.002785159 -s 58 -d -1 -p AODV -e 48 -c 2 -a 0 -i 0 -k RTR
r -t 1.002785183 -s 49 -d -1 -p AODV -e 48 -c 2 -a 0 -i 0 -k RTR
r -t 1.002785194 -s 28 -d -1 -p AODV -e 48 -c 2 -a 0 -i 0 -k RTR
r -t 1.002785202 -s 44 -d -1 -p AODV -e 48 -c 2 -a 0 -i 0 -k RTR
r -t 1.002785222 -s 32 -d -1 -p AODV -e 48 -c 2 -a 0 -i 0 -k RTR
r -t 1.002785245 -s 48 -d -1 -p AODV -e 48 -c 2 -a 0 -i 0 -k RTR
+ -t 1.002889982 -s 21 -d -1 -p AODV -e 48 -c 2 -a 0 -i 0 -k RTR 
- -t 1.002889982 -s 21 -d -1 -p AODV -e 48 -c 2 -a 0 -i 0 -k RTR
h -t 1.002889982 -s 21 -d -1 -p AODV -e 48 -c 2 -a 0 -i 0 -k RTR
+ -t 1.003289974 -s 8 -d -1 -p AODV -e 106 -c 2 -a 0 -i 0 -k MAC 
- -t 1.003289974 -s 8 -d -1 -p AODV -e 106 -c 2 -a 0 -i 0 -k MAC
h -t 1.003289974 -s 8 -d -1 -p AODV -e 106 -c 2 -a 0 -i 0 -k MAC
+ -t 1.003594239 -s 44 -d -1 -p AODV -e 48 -c 2 -a 0 -i 0 -k RTR 
- -t 1.003594239 -s 44 -d -1 -p AODV -e 48 -c 2 -a 0 -i 0 -k RTR
h -t 1.003594239 -s 44 -d -1 -p AODV -e 48 -c 2 -a 0 -i 0 -k RTR
r -t 1.004138159 -s 9 -d -1 -p AODV -e 48 -c 2 -a 0 -i 0 -k MAC
r -t 1.004138280 -s 32 -d -1 -p AODV -e 48 -c 2 -a 0 -i 0 -k MAC
r -t 1.004138314 -s 40 -d -1 -p AODV -e 48 -c 2 -a 0 -i 0 -k MAC
r -t 1.004138352 -s 50 -d -1 -p AODV -e 48 -c 2 -a 0 -i 0 -k MAC
r -t 1.004138354 -s 21 -d -1 -p AODV -e 48 -c 2 -a 0 -i 0 -k MAC
r -t 1.004138402 -s 58 -d -1 -p AODV -e 48 -c 2 -a 0 -i 0 -k MAC
r -t 1.004138429 -s 24 -d -1 -p AODV -e 48 -c 2 -a 0 -i 0 -k MAC
r -t 1.004138447 -s 5 -d -1 -p AODV -e 48 -c 2 -a 0 -i 0 -k MAC
r -t 1.004138547 -s 28 -d -1 -p AODV -e 48 -c 2 -a 0 -i 0 -k MAC
r -t 1.004138636 -s 0 -d -1 -p AODV -e 48 -c 2 -a 0 -i 0 -k MAC
r -t 1.004138638 -s 22 -d -1 -p AODV -e 48 -c 2 -a 0 -i 0 -k MAC
r -t 1.004138707 -s 3 -d -1 -p AODV -e 48 -c 2 -a 0 -i 0 -k MAC
r -t 1.004138720 -s 54 -d -1 -p AODV -e 48 -c 2 -a 0 -i 0 -k MAC
r -t 1.004138738 -s 31 -d -1 -p AODV -e 48 -c 2 -a 0 -i 0 -k MAC
r -t 1.004138785 -s 48 -d -1 -p AODV -e 48 -c 2 -a 0 -i 0 -k MAC
r -t 1.004163159 -s 9 -d -1 -p AODV -e 48 -c 2 -a 0 -i 0 -k RTR
r -t 1.004163280 -s 32 -d -1 -p AODV -e 48 -c 2 -a 0 -i 0 -k RTR
r -t 1.004163314 -s 40 -d -1 -p AODV -e 48 -c 2 -a 0 -i 0 -k RTR
r -t 1.004163352 -s 50 -d -1 -p AODV -e 48 -c 2 -a 0 -i 0 -k RTR
r -t 1.004163354 -s 21 -d -1 -p AODV -e 48 -c 2 -a 0 -i 0 -k RTR
r -t 1.004163402 -s 58 -d -1 -p AODV -e 48 -c 2 -a 0 -i 0 -k RTR
r -t 1.004163429 -s 24 -d -1 -p AODV -e 48 -c 2 -a 0 -i 0 -k RTR
r -t 1.004163447 -s 5 -d -1 -p AODV -e 48 -c 2 -a 0 -i 0 -k RTR
r -t 1.004163547 -s 28 -d -1 -p AODV -e 48 -c 2 -a 0 -i 0 -k RTR
r -t 1.004163636 -s 0 -d -1 -p AODV -e 48 -c 2 -a 0 -i 0 -k RTR
r -t 1.004163638 -s 22 -d -1 -p AODV -e 48 -c 2 -a 0 -i 0 -k RTR
r -t 1.004163707 -s 3 -d -1 -p AODV -e 48 -c 2 -a 0 -i 0 -k RTR
r -t 1.004163720 -s 54 -d -1 -p AODV -e 48 -c 2 -a 0 -i 0 -k RTR
r -t 1.004163738 -s 31 -d -1 -p AODV -e 48 -c 2 -a 0 -i 0 -k RTR
r -t 1.004163785 -s 48 -d -1 -p AODV -e 48 -c 2 -a 0 -i 0 -k RTR
+ -t 1.004228354 -s 21 -d -1 -p AODV -e 106 -c 2 -a 0 -i 0 -k MAC 
- -t 1.004228354 -s 21 -d -1 -p AODV -e 106 -c 2 -a 0 -i 0 -k MAC
h -t 1.004228354 -s 21 -d -1 -p AODV -e 106 -c 2 -a 0 -i 0 -k MAC
+ -t 1.004339211 -s 58 -d -1 -p AODV -e 48 -c 2 -a 0 -i 0 -k RTR 
- -t 1.004339211 -s 58 -d -1 -p AODV -e 48 -c 2 -a 0 -i 0 -k RTR
h -t 1.004339211 -s 58 -d -1 -p AODV -e 48 -c 2 -a 0 -i 0 -k RTR
+ -t 1.004377806 -s 48 -d -1 -p AODV -e 48 -c 2 -a 0 -i 0 -k RTR 
- -t 1.004377806 -s 48 -d -1 -p AODV -e 48 -c 2 -a 0 -i 0 -k RTR
h -t 1.004377806 -s 48 -d -1 -p AODV -e 48 -c 2 -a 0 -i 0 -k RTR
+ -t 1.004956817 -s 32 -d -1 -p AODV -e 48 -c 2 -a 0 -i 0 -k RTR 
- -t 1.004956817 -s 32 -d -1 -p AODV -e 48 -c 2 -a 0 -i 0 -k RTR
h -t 1.004956817 -s 32 -d -1 -p AODV -e 48 -c 2 -a 0 -i 0 -k RTR
r -t 1.005076376 -s 50 -d -1 -p AODV -e 48 -c 2 -a 0 -i 0 -k MAC
r -t 1.005076449 -s 5 -d -1 -p AODV -e 48 -c 2 -a 0 -i 0 -k MAC
r -t 1.005076498 -s 40 -d -1 -p AODV -e 48 -c 2 -a 0 -i 0 -k MAC
r -t 1.005076733 -s 8 -d -1 -p AODV -e 48 -c 2 -a 0 -i 0 -k MAC
r -t 1.005076738 -s 24 -d -1 -p AODV -e 48 -c 2 -a 0 -i 0 -k MAC
r -t 1.005076746 -s 54 -d -1 -p AODV -e 48 -c 2 -a 0 -i 0 -k MAC
r -t 1.005076827 -s 9 -d -1 -p AODV -e 48 -c 2 -a 0 -i 0 -k MAC
r -t 1.005076881 -s 0 -d -1 -p AODV -e 48 -c 2 -a 0 -i 0 -k MAC
r -t 1.005076914 -s 3 -d -1 -p AODV -e 48 -c 2 -a 0 -i 0 -k MAC
r -t 1.005076930 -s 58 -d -1 -p AODV -e 48 -c 2 -a 0 -i 0 -k MAC
r -t 1.005076967 -s 22 -d -1 -p AODV -e 48 -c 2 -a 0 -i 0 -k MAC
r -t 1.005076993 -s 32 -d -1 -p AODV -e 48 -c 2 -a 0 -i 0 -k MAC
r -t 1.005077005 -s 10 -d -1 -p AODV -e 48 -c 2 -a 0 -i 0 -k MAC
r -t 1.005077014 -s 28 -d -1 -p AODV -e 48 -c 2 -a 0 -i 0 -k MAC
r -t 1.005077021 -s 41 -d -1 -p AODV -e 48 -c 2 -a 0 -i 0 -k MAC
r -t 1.005077050 -s 44 -d -1 -p AODV -e 48 -c 2 -a 0 -i 0 -k MAC
r -t 1.005077056 -s 56 -d -1 -p AODV -e 48 -c 2 -a 0 -i 0 -k MAC
r -t 1.005077069 -s 48 -d -1 -p AODV -e 48 -c 2 -a 0 -i 0 -k MAC
r -t 1.005077089 -s 12 -d -1 -p AODV -e 48 -c 2 -a 0 -i 0 -k MAC
r -t 1.005077103 -s 36 -d -1 -p AODV -e 48 -c 2 -a 0 -i 0 -k MAC
r -t 1.005077130 -s 49 -d -1 -p AODV -e 48 -c 2 -a 0 -i 0 -k MAC
r -t 1.005101376 -s 50 -d -1 -p AODV -e 48 -c 2 -a 0 -i 0 -k RTR
r -t 1.005101449 -s 5 -d -1 -p AODV -e 48 -c 2 -a 0 -i 0 -k RTR
r -t 1.005101498 -s 40 -d -1 -p AODV -e 48 -c 2 -a 0 -i 0 -k RTR
r -t 1.005101733 -s 8 -d -1 -p AODV -e 48 -c 2 -a 0 -i 0 -k RTR
r -t 1.005101738 -s 24 -d -1 -p AODV -e 48 -c 2 -a 0 -i 0 -k RTR
r -t 1.005101746 -s 54 -d -1 -p AODV -e 48 -c 2 -a 0 -i 0 -k RTR
r -t 1.005101827 -s 9 -d -1 -p AODV -e 48 -c 2 -a 0 -i 0 -k RTR
r -t 1.005101881 -s 0 -d -1 -p AODV -e 48 -c 2 -a 0 -i 0 -k RTR
r -t 1.005101914 -s 3 -d -1 -p AODV -e 48 -c 2 -a 0 -i 0 -k RTR
r -t 1.005101930 -s 58 -d -1 -p AODV -e 48 -c 2 -a 0 -i 0 -k RTR
r -t 1.005101967 -s 22 -d -1 -p AODV -e 48 -c 2 -a 0 -i 0 -k RTR
r -t 1.005101993 -s 32 -d -1 -p AODV -e 48 -c 2 -a 0 -i 0 -k RTR
r -t 1.005102005 -s 10 -d -1 -p AODV -e 48 -c 2 -a 0 -i 0 -k RTR
r -t 1.005102014 -s 28 -d -1 -p AODV -e 48 -c 2 -a 0 -i 0 -k RTR
r -t 1.005102021 -s 41 -d -1 -p AODV -e 48 -c 2 -a 0 -i 0 -k RTR
r -t 1.005102050 -s 44 -d -1 -p AODV -e 48 -c 2 -a 0 -i 0 -k RTR
r -t 1.005102056 -s 56 -d -1 -p AODV -e 48 -c 2 -a 0 -i 0 -k RTR
r -t 1.005102069 -s 48 -d -1 -p AODV -e 48 -c 2 -a 0 -i 0 -k RTR
r -t 1.005102089 -s 12 -d -1 -p AODV -e 48 -c 2 -a 0 -i 0 -k RTR
r -t 1.005102103 -s 36 -d -1 -p AODV -e 48 -c 2 -a 0 -i 0 -k RTR
r -t 1.005102130 -s 49 -d -1 -p AODV -e 48 -c 2 -a 0 -i 0 -k RTR
+ -t 1.005167050 -s 44 -d -1 -p AODV -e 106 -c 2 -a 0 -i 0 -k MAC 
- -t 1.005167050 -s 44 -d -1 -p AODV -e 106 -c 2 -a 0 -i 0 -k MAC
h -t 1.005167050 -s 44 -d -1 -p AODV -e 106 -c 2 -a 0 -i 0 -k MAC
+ -t 1.005365956 -s 41 -d -1 -p AODV -e 48 -c 2 -a 0 -i 0 -k RTR 
- -t 1.005365956 -s 41 -d -1 -p AODV -e 48 -c 2 -a 0 -i 0 -k RTR
h -t 1.005365956 -s 41 -d -1 -p AODV -e 48 -c 2 -a 0 -i 0 -k RTR
r -t 1.006015197 -s 3 -d -1 -p AODV -e 48 -c 2 -a 0 -i 0 -k MAC
r -t 1.006015241 -s 48 -d -1 -p AODV -e 48 -c 2 -a 0 -i 0 -k MAC
r -t 1.006015271 -s 0 -d -1 -p AODV -e 48 -c 2 -a 0 -i 0 -k MAC
r -t 1.006015477 -s 24 -d -1 -p AODV -e 48 -c 2 -a 0 -i 0 -k MAC
r -t 1.006015507 -s 13 -d -1 -p AODV -e 48 -c 2 -a 0 -i 0 -k MAC
r -t 1.006015675 -s 45 -d -1 -p AODV -e 48 -c 2 -a 0 -i 0 -k MAC
r -t 1.006015676 -s 58 -d -1 -p AODV -e 48 -c 2 -a 0 -i 0 -k MAC
r -t 1.006015726 -s 50 -d -1 -p AODV -e 48 -c 2 -a 0 -i 0 -k MAC
r -t 1.006015747 -s 21 -d -1 -p AODV -e 48 -c 2 -a 0 -i 0 -k MAC
r -t 1.006015751 -s 5 -d -1 -p AODV -e 48 -c 2 -a 0 -i 0 -k MAC
r -t 1.006015754 -s 46 -d -1 -p AODV -e 48 -c 2 -a 0 -i 0 -k MAC
r -t 1.006015796 -s 16 -d -1 -p AODV -e 48 -c 2 -a 0 -i 0 -k MAC
r -t 1.006040197 -s 3 -d -1 -p AODV -e 48 -c 2 -a 0 -i 0 -k RTR
r -t 1.006040241 -s 48 -d -1 -p AODV -e 48 -c 2 -a 0 -i 0 -k RTR
r -t 1.006040271 -s 0 -d -1 -p AODV -e 48 -c 2 -a 0 -i 0 -k RTR
r -t 1.006040477 -s 24 -d -1 -p AODV -e 48 -c 2 -a 0 -i 0 -k RTR
r -t 1.006040507 -s 13 -d -1 -p AODV -e 48 -c 2 -a 0 -i 0 -k RTR
r -t 1.006040675 -s 45 -d -1 -p AODV -e 48 -c 2 -a 0 -i 0 -k RTR
r -t 1.006040676 -s 58 -d -1 -p AODV -e 48 -c 2 -a 0 -i 0 -k RTR
r -t 1.006040726 -s 50 -d -1 -p AODV -e 48 -c 2 -a 0 -i 0 -k RTR
r -t 1.006040747 -s 21 -d -1 -p AODV -e 48 -c 2 -a 0 -i 0 -k RTR
r -t 1.006040751 -s 5 -d -1 -p AODV -e 48 -c 2 -a 0 -i 0 -k RTR
r -t 1.006040754 -s 46 -d -1 -p AODV -e 48 -c 2 -a 0 -i 0 -k RTR
r -t 1.006040796 -s 16 -d -1 -p AODV -e 48 -c 2 -a 0 -i 0 -k RTR
+ -t 1.006105241 -s 48 -d -1 -p AODV -e 106 -c 2 -a 0 -i 0 -k MAC 
- -t 1.006105241 -s 48 -d -1 -p AODV -e 106 -c 2 -a 0 -i 0 -k MAC
h -t 1.006105241 -s 48 -d -1 -p AODV -e 106 -c 2 -a 0 -i 0 -k MAC
+ -t 1.006272471 -s 10 -d -1 -p AODV -e 48 -c 2 -a 0 -i 0 -k RTR 
- -t 1.006272471 -s 10 -d -1 -p AODV -e 48 -c 2 -a 0 -i 0 -k RTR
h -t 1.006272471 -s 10 -d -1 -p AODV -e 48 -c 2 -a 0 -i 0 -k RTR
+ -t 1.006871965 -s 56 -d -1 -p AODV -e 48 -c 2 -a 0 -i 0 -k RTR 
- -t 1.006871965 -s 56 -d -1 -p AODV -e 48 -c 2 -a 0 -i 0 -k RTR
h -t 1.006871965 -s 56 -d -1 -p AODV -e 48 -c 2 -a 0 -i 0 -k RTR
r -t 1.006953430 -s 0 -d -1 -p AODV -e 48 -c 2 -a 0 -i 0 -k MAC
r -t 1.006953432 -s 44 -d -1 -p AODV -e 48 -c 2 -a 0 -i 0 -k MAC
r -t 1.006953434 -s 3 -d -1 -p AODV -e 48 -c 2 -a 0 -i 0 -k MAC
r -t 1.006953509 -s 13 -d -1 -p AODV -e 48 -c 2 -a 0 -i 0 -k MAC
r -t 1.006953607 -s 24 -d -1 -p AODV -e 48 -c 2 -a 0 -i 0 -k MAC
r -t 1.006953726 -s 58 -d -1 -p AODV -e 48 -c 2 -a 0 -i 0 -k MAC
r -t 1.006953934 -s 50 -d -1 -p AODV -e 48 -c 2 -a 0 -i 0 -k MAC
r -t 1.006953957 -s 21 -d -1 -p AODV -e 48 -c 2 -a 0 -i 0 -k MAC
r -t 1.006953985 -s 5 -d -1 -p AODV -e 48 -c 2 -a 0 -i 0 -k MAC
r -t 1.006954015 -s 45 -d -1 -p AODV -e 48 -c 2 -a 0 -i 0 -k MAC
r -t 1.006954053 -s 8 -d -1 -p AODV -e 48 -c 2 -a 0 -i 0 -k MAC
r -t 1.006978430 -s 0 -d -1 -p AODV -e 48 -c 2 -a 0 -i 0 -k RTR
r -t 1.006978432 -s 44 -d -1 -p AODV -e 48 -c 2 -a 0 -i 0 -k RTR
r -t 1.006978434 -s 3 -d -1 -p AODV -e 48 -c 2 -a 0 -i 0 -k RTR
r -t 1.006978509 -s 13 -d -1 -p AODV -e 48 -c 2 -a 0 -i 0 -k RTR
r -t 1.006978607 -s 24 -d -1 -p AODV -e 48 -c 2 -a 0 -i 0 -k RTR
r -t 1.006978726 -s 58 -d -1 -p AODV -e 48 -c 2 -a 0 -i 0 -k RTR
r -t 1.006978934 -s 50 -d -1 -p AODV -e 48 -c 2 -a 0 -i 0 -k RTR
r -t 1.006978957 -s 21 -d -1 -p AODV -e 48 -c 2 -a 0 -i 0 -k RTR
r -t 1.006978985 -s 5 -d -1 -p AODV -e 48 -c 2 -a 0 -i 0 -k RTR
r -t 1.006979015 -s 45 -d -1 -p AODV -e 48 -c 2 -a 0 -i 0 -k RTR
r -t 1.006979053 -s 8 -d -1 -p AODV -e 48 -c 2 -a 0 -i 0 -k RTR
+ -t 1.007063726 -s 58 -d -1 -p AODV -e 106 -c 2 -a 0 -i 0 -k MAC 
- -t 1.007063726 -s 58 -d -1 -p AODV -e 106 -c 2 -a 0 -i 0 -k MAC
h -t 1.007063726 -s 58 -d -1 -p AODV -e 106 -c 2 -a 0 -i 0 -k MAC
+ -t 1.007161109 -s 16 -d -1 -p AODV -e 48 -c 2 -a 0 -i 0 -k RTR 
- -t 1.007161109 -s 16 -d -1 -p AODV -e 48 -c 2 -a 0 -i 0 -k RTR
h -t 1.007161109 -s 16 -d -1 -p AODV -e 48 -c 2 -a 0 -i 0 -k RTR
+ -t 1.007446310 -s 12 -d -1 -p AODV -e 48 -c 2 -a 0 -i 0 -k RTR 
- -t 1.007446310 -s 12 -d -1 -p AODV -e 48 -c 2 -a 0 -i 0 -k RTR
h -t 1.007446310 -s 12 -d -1 -p AODV -e 48 -c 2 -a 0 -i 0 -k RTR
+ -t 1.007637046 -s 13 -d -1 -p AODV -e 48 -c 2 -a 0 -i 0 -k RTR 
- -t 1.007637046 -s 13 -d -1 -p AODV -e 48 -c 2 -a 0 -i 0 -k RTR
h -t 1.007637046 -s 13 -d -1 -p AODV -e 48 -c 2 -a 0 -i 0 -k RTR
+ -t 1.007649339 -s 40 -d -1 -p AODV -e 48 -c 2 -a 0 -i 0 -k RTR 
- -t 1.007649339 -s 40 -d -1 -p AODV -e 48 -c 2 -a 0 -i 0 -k RTR
h -t 1.007649339 -s 40 -d -1 -p AODV -e 48 -c 2 -a 0 -i 0 -k RTR
r -t 1.007912008 -s 24 -d -1 -p AODV -e 48 -c 2 -a 0 -i 0 -k MAC
r -t 1.007912146 -s 0 -d -1 -p AODV -e 48 -c 2 -a 0 -i 0 -k MAC
r -t 1.007912147 -s 13 -d -1 -p AODV -e 48 -c 2 -a 0 -i 0 -k MAC
r -t 1.007912154 -s 8 -d -1 -p AODV -e 48 -c 2 -a 0 -i 0 -k MAC
r -t 1.007912211 -s 48 -d -1 -p AODV -e 48 -c 2 -a 0 -i 0 -k MAC
r -t 1.007912233 -s 3 -d -1 -p AODV -e 48 -c 2 -a 0 -i 0 -k MAC
r -t 1.007912285 -s 50 -d -1 -p AODV -e 48 -c 2 -a 0 -i 0 -k MAC
r -t 1.007912303 -s 21 -d -1 -p AODV -e 48 -c 2 -a 0 -i 0 -k MAC
r -t 1.007912331 -s 9 -d -1 -p AODV -e 48 -c 2 -a 0 -i 0 -k MAC
r -t 1.007912351 -s 44 -d -1 -p AODV -e 48 -c 2 -a 0 -i 0 -k MAC
r -t 1.007912370 -s 40 -d -1 -p AODV -e 48 -c 2 -a 0 -i 0 -k MAC
r -t 1.007912384 -s 5 -d -1 -p AODV -e 48 -c 2 -a 0 -i 0 -k MAC
r -t 1.007912398 -s 32 -d -1 -p AODV -e 48 -c 2 -a 0 -i 0 -k MAC
r -t 1.007937008 -s 24 -d -1 -p AODV -e 48 -c 2 -a 0 -i 0 -k RTR
r -t 1.007937146 -s 0 -d -1 -p AODV -e 48 -c 2 -a 0 -i 0 -k RTR
r -t 1.007937147 -s 13 -d -1 -p AODV -e 48 -c 2 -a 0 -i 0 -k RTR
r -t 1.007937154 -s 8 -d -1 -p AODV -e 48 -c 2 -a 0 -i 0 -k RTR
r -t 1.007937211 -s 48 -d -1 -p AODV -e 48 -c 2 -a 0 -i 0 -k RTR
r -t 1.007937233 -s 3 -d -1 -p AODV -e 48 -c 2 -a 0 -i 0 -k RTR
r -t 1.007937285 -s 50 -d -1 -p AODV -e 48 -c 2 -a 0 -i 0 -k RTR
r -t 1.007937303 -s 21 -d -1 -p AODV -e 48 -c 2 -a 0 -i 0 -k RTR
r -t 1.007937331 -s 9 -d -1 -p AODV -e 48 -c 2 -a 0 -i 0 -k RTR
r -t 1.007937351 -s 44 -d -1 -p AODV -e 48 -c 2 -a 0 -i 0 -k RTR
r -t 1.007937370 -s 40 -d -1 -p AODV -e 48 -c 2 -a 0 -i 0 -k RTR
r -t 1.007937384 -s 5 -d -1 -p AODV -e 48 -c 2 -a 0 -i 0 -k RTR
r -t 1.007937398 -s 32 -d -1 -p AODV -e 48 -c 2 -a 0 -i 0 -k RTR
+ -t 1.007971603 -s 22 -d -1 -p AODV -e 48 -c 2 -a 0 -i 0 -k RTR 
- -t 1.007971603 -s 22 -d -1 -p AODV -e 48 -c 2 -a 0 -i 0 -k RTR
h -t 1.007971603 -s 22 -d -1 -p AODV -e 48 -c 2 -a 0 -i 0 -k RTR
+ -t 1.008142147 -s 13 -d -1 -p AODV -e 106 -c 2 -a 0 -i 0 -k MAC 
- -t 1.008142147 -s 13 -d -1 -p AODV -e 106 -c 2 -a 0 -i 0 -k MAC
h -t 1.008142147 -s 13 -d -1 -p AODV -e 106 -c 2 -a 0 -i 0 -k MAC
r -t 1.008990415 -s 48 -d -1 -p AODV -e 48 -c 2 -a 0 -i 0 -k MAC
r -t 1.008990543 -s 0 -d -1 -p AODV -e 48 -c 2 -a 0 -i 0 -k MAC
r -t 1.008990569 -s 58 -d -1 -p AODV -e 48 -c 2 -a 0 -i 0 -k MAC
r -t 1.008990587 -s 3 -d -1 -p AODV -e 48 -c 2 -a 0 -i 0 -k MAC
r -t 1.008990604 -s 44 -d -1 -p AODV -e 48 -c 2 -a 0 -i 0 -k MAC
r -t 1.008990621 -s 24 -d -1 -p AODV -e 48 -c 2 -a 0 -i 0 -k MAC
r -t 1.009015415 -s 48 -d -1 -p AODV -e 48 -c 2 -a 0 -i 0 -k RTR
r -t 1.009015543 -s 0 -d -1 -p AODV -e 48 -c 2 -a 0 -i 0 -k RTR
r -t 1.009015569 -s 58 -d -1 -p AODV -e 48 -c 2 -a 0 -i 0 -k RTR
r -t 1.009015587 -s 3 -d -1 -p AODV -e 48 -c 2 -a 0 -i 0 -k RTR
r -t 1.009015604 -s 44 -d -1 -p AODV -e 48 -c 2 -a 0 -i 0 -k RTR
r -t 1.009015621 -s 24 -d -1 -p AODV -e 48 -c 2 -a 0 -i 0 -k RTR
+ -t 1.009239641 -s 3 -d -1 -p AODV -e 48 -c 2 -a 0 -i 0 -k RTR 
- -t 1.009239641 -s 3 -d -1 -p AODV -e 48 -c 2 -a 0 -i 0 -k RTR
h -t 1.009239641 -s 3 -d -1 -p AODV -e 48 -c 2 -a 0 -i 0 -k RTR
+ -t 1.009405581 -s 22 -d -1 -p AODV -e 106 -c 2 -a 0 -i 0 -k MAC 
- -t 1.009405581 -s 22 -d -1 -p AODV -e 106 -c 2 -a 0 -i 0 -k MAC
h -t 1.009405581 -s 22 -d -1 -p AODV -e 106 -c 2 -a 0 -i 0 -k MAC
+ -t 1.009412968 -s 24 -d -1 -p AODV -e 48 -c 2 -a 0 -i 0 -k RTR 
- -t 1.009412968 -s 24 -d -1 -p AODV -e 48 -c 2 -a 0 -i 0 -k RTR
h -t 1.009412968 -s 24 -d -1 -p AODV -e 48 -c 2 -a 0 -i 0 -k RTR
+ -t 1.009611741 -s 50 -d -1 -p AODV -e 48 -c 2 -a 0 -i 0 -k RTR 
- -t 1.009611741 -s 50 -d -1 -p AODV -e 48 -c 2 -a 0 -i 0 -k RTR
h -t 1.009611741 -s 50 -d -1 -p AODV -e 48 -c 2 -a 0 -i 0 -k RTR
+ -t 1.009708224 -s 36 -d -1 -p AODV -e 48 -c 2 -a 0 -i 0 -k RTR 
- -t 1.009708224 -s 36 -d -1 -p AODV -e 48 -c 2 -a 0 -i 0 -k RTR
h -t 1.009708224 -s 36 -d -1 -p AODV -e 48 -c 2 -a 0 -i 0 -k RTR
+ -t 1.009846067 -s 54 -d -1 -p AODV -e 48 -c 2 -a 0 -i 0 -k RTR 
- -t 1.009846067 -s 54 -d -1 -p AODV -e 48 -c 2 -a 0 -i 0 -k RTR
h -t 1.009846067 -s 54 -d -1 -p AODV -e 48 -c 2 -a 0 -i 0 -k RTR
r -t 1.010253810 -s 28 -d -1 -p AODV -e 48 -c 2 -a 0 -i 0 -k MAC
r -t 1.010253871 -s 57 -d -1 -p AODV -e 48 -c 2 -a 0 -i 0 -k MAC
r -t 1.010253941 -s 31 -d -1 -p AODV -e 48 -c 2 -a 0 -i 0 -k MAC
r -t 1.010254058 -s 40 -d -1 -p AODV -e 48 -c 2 -a 0 -i 0 -k MAC
r -t 1.010254125 -s 9 -d -1 -p AODV -e 48 -c 2 -a 0 -i 0 -k MAC
r -t 1.010254186 -s 54 -d -1 -p AODV -e 48 -c 2 -a 0 -i 0 -k MAC
r -t 1.010254194 -s 21 -d -1 -p AODV -e 48 -c 2 -a 0 -i 0 -k MAC
r -t 1.010254195 -s 5 -d -1 -p AODV -e 48 -c 2 -a 0 -i 0 -k MAC
r -t 1.010254216 -s 50 -d -1 -p AODV -e 48 -c 2 -a 0 -i 0 -k MAC
r -t 1.010254219 -s 32 -d -1 -p AODV -e 48 -c 2 -a 0 -i 0 -k MAC
r -t 1.010254245 -s 8 -d -1 -p AODV -e 48 -c 2 -a 0 -i 0 -k MAC
r -t 1.010254278 -s 12 -d -1 -p AODV -e 48 -c 2 -a 0 -i 0 -k MAC
r -t 1.010254320 -s 10 -d -1 -p AODV -e 48 -c 2 -a 0 -i 0 -k MAC
r -t 1.010254344 -s 41 -d -1 -p AODV -e 48 -c 2 -a 0 -i 0 -k MAC
r -t 1.010254370 -s 33 -d -1 -p AODV -e 48 -c 2 -a 0 -i 0 -k MAC
r -t 1.010278810 -s 28 -d -1 -p AODV -e 48 -c 2 -a 0 -i 0 -k RTR
r -t 1.010278871 -s 57 -d -1 -p AODV -e 48 -c 2 -a 0 -i 0 -k RTR
r -t 1.010278941 -s 31 -d -1 -p AODV -e 48 -c 2 -a 0 -i 0 -k RTR
r -t 1.010279058 -s 40 -d -1 -p AODV -e 48 -c 2 -a 0 -i 0 -k RTR
r -t 1.010279125 -s 9 -d -1 -p AODV -e 48 -c 2 -a 0 -i 0 -k RTR
r -t 1.010279186 -s 54 -d -1 -p AODV -e 48 -c 2 -a 0 -i 0 -k RTR
r -t 1.010279194 -s 21 -d -1 -p AODV -e 48 -c 2 -a 0 -i 0 -k RTR
r -t 1.010279195 -s 5 -d -1 -p AODV -e 48 -c 2 -a 0 -i 0 -k RTR
r -t 1.010279216 -s 50 -d -1 -p AODV -e 48 -c 2 -a 0 -i 0 -k RTR
r -t 1.010279219 -s 32 -d -1 -p AODV -e 48 -c 2 -a 0 -i 0 -k RTR
r -t 1.010279245 -s 8 -d -1 -p AODV -e 48 -c 2 -a 0 -i 0 -k RTR
r -t 1.010279278 -s 12 -d -1 -p AODV -e 48 -c 2 -a 0 -i 0 -k RTR
r -t 1.010279320 -s 10 -d -1 -p AODV -e 48 -c 2 -a 0 -i 0 -k RTR
r -t 1.010279344 -s 41 -d -1 -p AODV -e 48 -c 2 -a 0 -i 0 -k RTR
r -t 1.010279370 -s 33 -d -1 -p AODV -e 48 -c 2 -a 0 -i 0 -k RTR
+ -t 1.010364219 -s 32 -d -1 -p AODV -e 106 -c 2 -a 0 -i 0 -k MAC 
- -t 1.010364219 -s 32 -d -1 -p AODV -e 106 -c 2 -a 0 -i 0 -k MAC
h -t 1.010364219 -s 32 -d -1 -p AODV -e 106 -c 2 -a 0 -i 0 -k MAC
+ -t 1.010364320 -s 10 -d -1 -p AODV -e 106 -c 2 -a 0 -i 0 -k MAC 
- -t 1.010364320 -s 10 -d -1 -p AODV -e 106 -c 2 -a 0 -i 0 -k MAC
h -t 1.010364320 -s 10 -d -1 -p AODV -e 106 -c 2 -a 0 -i 0 -k MAC
d -t 1.010364941 -s 5 -d -1 -p AODV -e 106 -c 2 -a 0 -i 0 -k MAC
d -t 1.010364972 -s 21 -d -1 -p AODV -e 106 -c 2 -a 0 -i 0 -k MAC
d -t 1.010364983 -s 40 -d -1 -p AODV -e 106 -c 2 -a 0 -i 0 -k MAC
d -t 1.010364984 -s 50 -d -1 -p AODV -e 106 -c 2 -a 0 -i 0 -k MAC
d -t 1.010365059 -s 22 -d -1 -p AODV -e 106 -c 2 -a 0 -i 0 -k MAC
d -t 1.010365283 -s 24 -d -1 -p AODV -e 106 -c 2 -a 0 -i 0 -k MAC
+ -t 1.010855340 -s 9 -d -1 -p AODV -e 48 -c 2 -a 0 -i 0 -k RTR 
- -t 1.010855340 -s 9 -d -1 -p AODV -e 48 -c 2 -a 0 -i 0 -k RTR
h -t 1.010855340 -s 9 -d -1 -p AODV -e 48 -c 2 -a 0 -i 0 -k RTR
+ -t 1.011183446 -s 28 -d -1 -p AODV -e 48 -c 2 -a 0 -i 0 -k RTR 
- -t 1.011183446 -s 28 -d -1 -p AODV -e 48 -c 2 -a 0 -i 0 -k RTR
h -t 1.011183446 -s 28 -d -1 -p AODV -e 48 -c 2 -a 0 -i 0 -k RTR
r -t 1.011212344 -s 41 -d -1 -p AODV -e 48 -c 2 -a 0 -i 0 -k MAC
r -t 1.011212388 -s 9 -d -1 -p AODV -e 48 -c 2 -a 0 -i 0 -k MAC
r -t 1.011212467 -s 12 -d -1 -p AODV -e 48 -c 2 -a 0 -i 0 -k MAC
r -t 1.011212526 -s 8 -d -1 -p AODV -e 48 -c 2 -a 0 -i 0 -k MAC
r -t 1.011212556 -s 56 -d -1 -p AODV -e 48 -c 2 -a 0 -i 0 -k MAC
r -t 1.011212572 -s 36 -d -1 -p AODV -e 48 -c 2 -a 0 -i 0 -k MAC
r -t 1.011212580 -s 54 -d -1 -p AODV -e 48 -c 2 -a 0 -i 0 -k MAC
r -t 1.011212634 -s 49 -d -1 -p AODV -e 48 -c 2 -a 0 -i 0 -k MAC
r -t 1.011212675 -s 28 -d -1 -p AODV -e 48 -c 2 -a 0 -i 0 -k MAC
r -t 1.011212745 -s 19 -d -1 -p AODV -e 48 -c 2 -a 0 -i 0 -k MAC
r -t 1.011212755 -s 33 -d -1 -p AODV -e 48 -c 2 -a 0 -i 0 -k MAC
r -t 1.011212790 -s 2 -d -1 -p AODV -e 48 -c 2 -a 0 -i 0 -k MAC
r -t 1.011212801 -s 31 -d -1 -p AODV -e 48 -c 2 -a 0 -i 0 -k MAC
r -t 1.011212807 -s 7 -d -1 -p AODV -e 48 -c 2 -a 0 -i 0 -k MAC
r -t 1.011212858 -s 39 -d -1 -p AODV -e 48 -c 2 -a 0 -i 0 -k MAC
r -t 1.011212891 -s 58 -d -1 -p AODV -e 48 -c 2 -a 0 -i 0 -k MAC
d -t 1.011212941 -s 5 -d -1 -p AODV -e 106 -c 2 -a 0 -i 0 -k MAC
d -t 1.011212972 -s 21 -d -1 -p AODV -e 106 -c 2 -a 0 -i 0 -k MAC
r -t 1.011212973 -s 27 -d -1 -p AODV -e 48 -c 2 -a 0 -i 0 -k MAC
d -t 1.011212983 -s 40 -d -1 -p AODV -e 106 -c 2 -a 0 -i 0 -k MAC
d -t 1.011212984 -s 50 -d -1 -p AODV -e 106 -c 2 -a 0 -i 0 -k MAC
r -t 1.011213015 -s 16 -d -1 -p AODV -e 48 -c 2 -a 0 -i 0 -k MAC
r -t 1.011213027 -s 53 -d -1 -p AODV -e 48 -c 2 -a 0 -i 0 -k MAC
d -t 1.011213059 -s 22 -d -1 -p AODV -e 106 -c 2 -a 0 -i 0 -k MAC
r -t 1.011237344 -s 41 -d -1 -p AODV -e 48 -c 2 -a 0 -i 0 -k RTR
r -t 1.011237388 -s 9 -d -1 -p AODV -e 48 -c 2 -a 0 -i 0 -k RTR
r -t 1.011237467 -s 12 -d -1 -p AODV -e 48 -c 2 -a 0 -i 0 -k RTR
r -t 1.011237526 -s 8 -d -1 -p AODV -e 48 -c 2 -a 0 -i 0 -k RTR
r -t 1.011237556 -s 56 -d -1 -p AODV -e 48 -c 2 -a 0 -i 0 -k RTR
r -t 1.011237572 -s 36 -d -1 -p AODV -e 48 -c 2 -a 0 -i 0 -k RTR
r -t 1.011237580 -s 54 -d -1 -p AODV -e 48 -c 2 -a 0 -i 0 -k RTR
r -t 1.011237634 -s 49 -d -1 -p AODV -e 48 -c 2 -a 0 -i 0 -k RTR
r -t 1.011237675 -s 28 -d -1 -p AODV -e 48 -c 2 -a 0 -i 0 -k RTR
r -t 1.011237745 -s 19 -d -1 -p AODV -e 48 -c 2 -a 0 -i 0 -k RTR
r -t 1.011237755 -s 33 -d -1 -p AODV -e 48 -c 2 -a 0 -i 0 -k RTR
r -t 1.011237790 -s 2 -d -1 -p AODV -e 48 -c 2 -a 0 -i 0 -k RTR
r -t 1.011237801 -s 31 -d -1 -p AODV -e 48 -c 2 -a 0 -i 0 -k RTR
r -t 1.011237807 -s 7 -d -1 -p AODV -e 48 -c 2 -a 0 -i 0 -k RTR
r -t 1.011237858 -s 39 -d -1 -p AODV -e 48 -c 2 -a 0 -i 0 -k RTR