0.00000  -1 -1 -1 -1 cwnd_ 1.000 
0.00000  -1 -1 -1 -1 ssthresh_ 20
0.00000  -1 -1 -1 -1 ack_ -1
0.00000  -1 -1 -1 -1 maxseq_ -1
s 0.036920387 _1_ RTR  --- 0 message 32 [0 0 0 0] ------- [1:255 -1:255 32 0] 
s 0.037355387 _1_ MAC  --- 0 message 90 [0 ffffffff 1 800] ------- [1:255 -1:255 32 0] 
r 0.038076203 _14_ MAC  --- 0 message 32 [0 ffffffff 1 800] ------- [1:255 -1:255 32 0] 
r 0.038101203 _14_ RTR  --- 0 message 32 [0 ffffffff 1 800] ------- [1:255 -1:255 32 0] 
s 0.089644306 _12_ RTR  --- 1 message 32 [0 0 0 0] ------- [12:255 -1:255 32 0] 
s 0.089919306 _12_ MAC  --- 1 message 90 [0 ffffffff c 800] ------- [12:255 -1:255 32 0] 
r 0.090639659 _24_ MAC  --- 1 message 32 [0 ffffffff c 800] ------- [12:255 -1:255 32 0] 
r 0.090639806 _15_ MAC  --- 1 message 32 [0 ffffffff c 800] ------- [12:255 -1:255 32 0] 
r 0.090639937 _9_ MAC  --- 1 message 32 [0 ffffffff c 800] ------- [12:255 -1:255 32 0] 
r 0.090639997 _27_ MAC  --- 1 message 32 [0 ffffffff c 800] ------- [12:255 -1:255 32 0] 
r 0.090640037 _22_ MAC  --- 1 message 32 [0 ffffffff c 800] ------- [12:255 -1:255 32 0] 
r 0.090640087 _26_ MAC  --- 1 message 32 [0 ffffffff c 800] ------- [12:255 -1:255 32 0] 
r 0.090640137 _28_ MAC  --- 1 message 32 [0 ffffffff c 800] ------- [12:255 -1:255 32 0] 
r 0.090664659 _24_ RTR  --- 1 message 32 [0 ffffffff c 800] ------- [12:255 -1:255 32 0] 
r 0.090664806 _15_ RTR  --- 1 message 32 [0 ffffffff c 800] ------- [12:255 -1:255 32 0] 
r 0.090664937 _9_ RTR  --- 1 message 32 [0 ffffffff c 800] ------- [12:255 -1:255 32 0] 
r 0.090664997 _27_ RTR  --- 1 message 32 [0 ffffffff c 800] ------- [12:255 -1:255 32 0] 
r 0.090665037 _22_ RTR  --- 1 message 32 [0 ffffffff c 800] ------- [12:255 -1:255 32 0] 
r 0.090665087 _26_ RTR  --- 1 message 32 [0 ffffffff c 800] ------- [12:255 -1:255 32 0] 
r 0.090665137 _28_ RTR  --- 1 message 32 [0 ffffffff c 800] ------- [12:255 -1:255 32 0] 
s 0.185119778 _2_ RTR  --- 2 message 32 [0 0 0 0] ------- [2:255 -1:255 32 0] 
s 0.185394778 _2_ MAC  --- 2 message 90 [0 ffffffff 2 800] ------- [2:255 -1:255 32 0] 
r 0.186115017 _27_ MAC  --- 2 message 32 [0 ffffffff 2 800] ------- [2:255 -1:255 32 0] 
r 0.186115116 _8_ MAC  --- 2 message 32 [0 ffffffff 2 800] ------- [2:255 -1:255 32 0] 
r 0.186140017 _27_ RTR  --- 2 message 32 [0 ffffffff 2 800] ------- [2:255 -1:255 32 0] 
r 0.186140116 _8_ RTR  --- 2 message 32 [0 ffffffff 2 800] ------- [2:255 -1:255 32 0] 
s 0.188861735 _18_ RTR  --- 3 message 32 [0 0 0 0] ------- [18:255 -1:255 32 0] 
s 0.189276735 _18_ MAC  --- 3 message 90 [0 ffffffff 12 800] ------- [18:255 -1:255 32 0] 
r 0.189996880 _13_ MAC  --- 3 message 32 [0 ffffffff 12 800] ------- [18:255 -1:255 32 0] 
r 0.189997095 _7_ MAC  --- 3 message 32 [0 ffffffff 12 800] ------- [18:255 -1:255 32 0] 
r 0.189997195 _17_ MAC  --- 3 message 32 [0 ffffffff 12 800] ------- [18:255 -1:255 32 0] 
r 0.189997211 _10_ MAC  --- 3 message 32 [0 ffffffff 12 800] ------- [18:255 -1:255 32 0] 
r 0.189997242 _28_ MAC  --- 3 message 32 [0 ffffffff 12 800] ------- [18:255 -1:255 32 0] 
r 0.189997276 _15_ MAC  --- 3 message 32 [0 ffffffff 12 800] ------- [18:255 -1:255 32 0] 
r 0.189997283 _3_ MAC  --- 3 message 32 [0 ffffffff 12 800] ------- [18:255 -1:255 32 0] 
r 0.189997427 _24_ MAC  --- 3 message 32 [0 ffffffff 12 800] ------- [18:255 -1:255 32 0] 
r 0.189997534 _19_ MAC  --- 3 message 32 [0 ffffffff 12 800] ------- [18:255 -1:255 32 0] 
r 0.189997535 _26_ MAC  --- 3 message 32 [0 ffffffff 12 800] ------- [18:255 -1:255 32 0] 
r 0.189997558 _11_ MAC  --- 3 message 32 [0 ffffffff 12 800] ------- [18:255 -1:255 32 0] 
r 0.190021880 _13_ RTR  --- 3 message 32 [0 ffffffff 12 800] ------- [18:255 -1:255 32 0] 
r 0.190022095 _7_ RTR  --- 3 message 32 [0 ffffffff 12 800] ------- [18:255 -1:255 32 0] 
r 0.190022195 _17_ RTR  --- 3 message 32 [0 ffffffff 12 800] ------- [18:255 -1:255 32 0] 
r 0.190022211 _10_ RTR  --- 3 message 32 [0 ffffffff 12 800] ------- [18:255 -1:255 32 0] 
r 0.190022242 _28_ RTR  --- 3 message 32 [0 ffffffff 12 800] ------- [18:255 -1:255 32 0] 
r 0.190022276 _15_ RTR  --- 3 message 32 [0 ffffffff 12 800] ------- [18:255 -1:255 32 0] 
r 0.190022283 _3_ RTR  --- 3 message 32 [0 ffffffff 12 800] ------- [18:255 -1:255 32 0] 
r 0.190022427 _24_ RTR  --- 3 message 32 [0 ffffffff 12 800] ------- [18:255 -1:255 32 0] 
r 0.190022534 _19_ RTR  --- 3 message 32 [0 ffffffff 12 800] ------- [18:255 -1:255 32 0] 
r 0.190022535 _26_ RTR  --- 3 message 32 [0 ffffffff 12 800] ------- [18:255 -1:255 32 0] 
r 0.190022558 _11_ RTR  --- 3 message 32 [0 ffffffff 12 800] ------- [18:255 -1:255 32 0] 
s 0.228847532 _14_ RTR  --- 4 message 32 [0 0 0 0] ------- [14:255 -1:255 32 0] 
s 0.229202532 _14_ MAC  --- 4 message 90 [0 ffffffff e 800] ------- [14:255 -1:255 32 0] 
r 0.229923262 _5_ MAC  --- 4 message 32 [0 ffffffff e 800] ------- [14:255 -1:255 32 0] 
r 0.229923348 _1_ MAC  --- 4 message 32 [0 ffffffff e 800] ------- [14:255 -1:255 32 0] 
r 0.229948262 _5_ RTR  --- 4 message 32 [0 ffffffff e 800] ------- [14:255 -1:255 32 0] 
r 0.229948348 _1_ RTR  --- 4 message 32 [0 ffffffff e 800] ------- [14:255 -1:255 32 0] 
s 0.333739033 _11_ RTR  --- 5 message 32 [0 0 0 0] ------- [11:255 -1:255 32 0] 
s 0.334134033 _11_ MAC  --- 5 message 90 [0 ffffffff b 800] ------- [11:255 -1:255 32 0] 
r 0.334854372 _6_ MAC  --- 5 message 32 [0 ffffffff b 800] ------- [11:255 -1:255 32 0] 
r 0.334854396 _10_ MAC  --- 5 message 32 [0 ffffffff b 800] ------- [11:255 -1:255 32 0] 
r 0.334854519 _19_ MAC  --- 5 message 32 [0 ffffffff b 800] ------- [11:255 -1:255 32 0] 
r 0.334854716 _17_ MAC  --- 5 message 32 [0 ffffffff b 800] ------- [11:255 -1:255 32 0] 
r 0.334854747 _13_ MAC  --- 5 message 32 [0 ffffffff b 800] ------- [11:255 -1:255 32 0] 
r 0.334854792 _29_ MAC  --- 5 message 32 [0 ffffffff b 800] ------- [11:255 -1:255 32 0] 
r 0.334854856 _18_ MAC  --- 5 message 32 [0 ffffffff b 800] ------- [11:255 -1:255 32 0] 
r 0.334879372 _6_ RTR  --- 5 message 32 [0 ffffffff b 800] ------- [11:255 -1:255 32 0] 
r 0.334879396 _10_ RTR  --- 5 message 32 [0 ffffffff b 800] ------- [11:255 -1:255 32 0] 
r 0.334879519 _19_ RTR  --- 5 message 32 [0 ffffffff b 800] ------- [11:255 -1:255 32 0] 
r 0.334879716 _17_ RTR  --- 5 message 32 [0 ffffffff b 800] ------- [11:255 -1:255 32 0] 
r 0.334879747 _13_ RTR  --- 5 message 32 [0 ffffffff b 800] ------- [11:255 -1:255 32 0] 
r 0.334879792 _29_ RTR  --- 5 message 32 [0 ffffffff b 800] ------- [11:255 -1:255 32 0] 
r 0.334879856 _18_ RTR  --- 5 message 32 [0 ffffffff b 800] ------- [11:255 -1:255 32 0] 
s 0.353867380 _17_ RTR  --- 6 message 32 [0 0 0 0] ------- [17:255 -1:255 32 0] 
s 0.354242380 _17_ MAC  --- 6 message 90 [0 ffffffff 11 800] ------- [17:255 -1:255 32 0] 
r 0.354962706 _13_ MAC  --- 6 message 32 [0 ffffffff 11 800] ------- [17:255 -1:255 32 0] 
r 0.354962748 _10_ MAC  --- 6 message 32 [0 ffffffff 11 800] ------- [17:255 -1:255 32 0] 
r 0.354962840 _18_ MAC  --- 6 message 32 [0 ffffffff 11 800] ------- [17:255 -1:255 32 0] 
r 0.354963028 _3_ MAC  --- 6 message 32 [0 ffffffff 11 800] ------- [17:255 -1:255 32 0] 
r 0.354963064 _11_ MAC  --- 6 message 32 [0 ffffffff 11 800] ------- [17:255 -1:255 32 0] 
r 0.354963094 _4_ MAC  --- 6 message 32 [0 ffffffff 11 800] ------- [17:255 -1:255 32 0] 
r 0.354963168 _7_ MAC  --- 6 message 32 [0 ffffffff 11 800] ------- [17:255 -1:255 32 0] 
r 0.354963185 _20_ MAC  --- 6 message 32 [0 ffffffff 11 800] ------- [17:255 -1:255 32 0] 
r 0.354987706 _13_ RTR  --- 6 message 32 [0 ffffffff 11 800] ------- [17:255 -1:255 32 0] 
r 0.354987748 _10_ RTR  --- 6 message 32 [0 ffffffff 11 800] ------- [17:255 -1:255 32 0] 
r 0.354987840 _18_ RTR  --- 6 message 32 [0 ffffffff 11 800] ------- [17:255 -1:255 32 0] 
r 0.354988028 _3_ RTR  --- 6 message 32 [0 ffffffff 11 800] ------- [17:255 -1:255 32 0] 
r 0.354988064 _11_ RTR  --- 6 message 32 [0 ffffffff 11 800] ------- [17:255 -1:255 32 0] 
r 0.354988094 _4_ RTR  --- 6 message 32 [0 ffffffff 11 800] ------- [17:255 -1:255 32 0] 
r 0.354988168 _7_ RTR  --- 6 message 32 [0 ffffffff 11 800] ------- [17:255 -1:255 32 0] 
r 0.354988185 _20_ RTR  --- 6 message 32 [0 ffffffff 11 800] ------- [17:255 -1:255 32 0] 
s 0.442168790 _28_ RTR  --- 7 message 32 [0 0 0 0] ------- [28:255 -1:255 32 0] 
s 0.442523790 _28_ MAC  --- 7 message 90 [0 ffffffff 1c 800] ------- [28:255 -1:255 32 0] 
r 0.443243949 _7_ MAC  --- 7 message 32 [0 ffffffff 1c 800] ------- [28:255 -1:255 32 0] 
r 0.443244091 _26_ MAC  --- 7 message 32 [0 ffffffff 1c 800] ------- [28:255 -1:255 32 0] 
r 0.443244151 _15_ MAC  --- 7 message 32 [0 ffffffff 1c 800] ------- [28:255 -1:255 32 0] 
r 0.443244297 _18_ MAC  --- 7 message 32 [0 ffffffff 1c 800] ------- [28:255 -1:255 32 0] 
r 0.443244440 _13_ MAC  --- 7 message 32 [0 ffffffff 1c 800] ------- [28:255 -1:255 32 0] 
r 0.443244444 _3_ MAC  --- 7 message 32 [0 ffffffff 1c 800] ------- [28:255 -1:255 32 0] 
r 0.443244484 _24_ MAC  --- 7 message 32 [0 ffffffff 1c 800] ------- [28:255 -1:255 32 0] 
r 0.443244513 _9_ MAC  --- 7 message 32 [0 ffffffff 1c 800] ------- [28:255 -1:255 32 0] 
r 0.443244620 _12_ MAC  --- 7 message 32 [0 ffffffff 1c 800] ------- [28:255 -1:255 32 0] 
r 0.443268949 _7_ RTR  --- 7 message 32 [0 ffffffff 1c 800] ------- [28:255 -1:255 32 0] 
r 0.443269091 _26_ RTR  --- 7 message 32 [0 ffffffff 1c 800] ------- [28:255 -1:255 32 0] 
r 0.443269151 _15_ RTR  --- 7 message 32 [0 ffffffff 1c 800] ------- [28:255 -1:255 32 0] 
r 0.443269297 _18_ RTR  --- 7 message 32 [0 ffffffff 1c 800] ------- [28:255 -1:255 32 0] 
r 0.443269440 _13_ RTR  --- 7 message 32 [0 ffffffff 1c 800] ------- [28:255 -1:255 32 0] 
r 0.443269444 _3_ RTR  --- 7 message 32 [0 ffffffff 1c 800] ------- [28:255 -1:255 32 0] 
r 0.443269484 _24_ RTR  --- 7 message 32 [0 ffffffff 1c 800] ------- [28:255 -1:255 32 0] 
r 0.443269513 _9_ RTR  --- 7 message 32 [0 ffffffff 1c 800] ------- [28:255 -1:255 32 0] 
r 0.443269620 _12_ RTR  --- 7 message 32 [0 ffffffff 1c 800] ------- [28:255 -1:255 32 0] 
s 0.476152876 _7_ RTR  --- 8 message 32 [0 0 0 0] ------- [7:255 -1:255 32 0] 
s 0.476347876 _7_ MAC  --- 8 message 90 [0 ffffffff 7 800] ------- [7:255 -1:255 32 0] 
r 0.477068036 _28_ MAC  --- 8 message 32 [0 ffffffff 7 800] ------- [7:255 -1:255 32 0] 
r 0.477068236 _18_ MAC  --- 8 message 32 [0 ffffffff 7 800] ------- [7:255 -1:255 32 0] 
r 0.477068279 _15_ MAC  --- 8 message 32 [0 ffffffff 7 800] ------- [7:255 -1:255 32 0] 
r 0.477068337 _26_ MAC  --- 8 message 32 [0 ffffffff 7 800] ------- [7:255 -1:255 32 0] 
r 0.477068377 _13_ MAC  --- 8 message 32 [0 ffffffff 7 800] ------- [7:255 -1:255 32 0] 
r 0.477068410 _3_ MAC  --- 8 message 32 [0 ffffffff 7 800] ------- [7:255 -1:255 32 0] 
r 0.477068580 _24_ MAC  --- 8 message 32 [0 ffffffff 7 800] ------- [7:255 -1:255 32 0] 
r 0.477068664 _17_ MAC  --- 8 message 32 [0 ffffffff 7 800] ------- [7:255 -1:255 32 0] 
r 0.477068705 _10_ MAC  --- 8 message 32 [0 ffffffff 7 800] ------- [7:255 -1:255 32 0] 
r 0.477093036 _28_ RTR  --- 8 message 32 [0 ffffffff 7 800] ------- [7:255 -1:255 32 0] 
r 0.477093236 _18_ RTR  --- 8 message 32 [0 ffffffff 7 800] ------- [7:255 -1:255 32 0] 
r 0.477093279 _15_ RTR  --- 8 message 32 [0 ffffffff 7 800] ------- [7:255 -1:255 32 0] 
r 0.477093337 _26_ RTR  --- 8 message 32 [0 ffffffff 7 800] ------- [7:255 -1:255 32 0] 
r 0.477093377 _13_ RTR  --- 8 message 32 [0 ffffffff 7 800] ------- [7:255 -1:255 32 0] 
r 0.477093410 _3_ RTR  --- 8 message 32 [0 ffffffff 7 800] ------- [7:255 -1:255 32 0] 
r 0.477093580 _24_ RTR  --- 8 message 32 [0 ffffffff 7 800] ------- [7:255 -1:255 32 0] 
r 0.477093664 _17_ RTR  --- 8 message 32 [0 ffffffff 7 800] ------- [7:255 -1:255 32 0] 
r 0.477093705 _10_ RTR  --- 8 message 32 [0 ffffffff 7 800] ------- [7:255 -1:255 32 0] 
s 0.487368473 _29_ RTR  --- 9 message 32 [0 0 0 0] ------- [29:255 -1:255 32 0] 
s 0.487563473 _29_ MAC  --- 9 message 90 [0 ffffffff 1d 800] ------- [29:255 -1:255 32 0] 
r 0.488283893 _6_ MAC  --- 9 message 32 [0 ffffffff 1d 800] ------- [29:255 -1:255 32 0] 
r 0.488283944 _25_ MAC  --- 9 message 32 [0 ffffffff 1d 800] ------- [29:255 -1:255 32 0] 
r 0.488284232 _11_ MAC  --- 9 message 32 [0 ffffffff 1d 800] ------- [29:255 -1:255 32 0] 
r 0.488308893 _6_ RTR  --- 9 message 32 [0 ffffffff 1d 800] ------- [29:255 -1:255 32 0] 
r 0.488308944 _25_ RTR  --- 9 message 32 [0 ffffffff 1d 800] ------- [29:255 -1:255 32 0] 
r 0.488309232 _11_ RTR  --- 9 message 32 [0 ffffffff 1d 800] ------- [29:255 -1:255 32 0] 
s 0.523526809 _21_ RTR  --- 10 message 32 [0 0 0 0] ------- [21:255 -1:255 32 0] 
s 0.523861809 _21_ MAC  --- 10 message 90 [0 ffffffff 15 800] ------- [21:255 -1:255 32 0] 
r 0.524582127 _0_ MAC  --- 10 message 32 [0 ffffffff 15 800] ------- [21:255 -1:255 32 0] 
r 0.524582509 _9_ MAC  --- 10 message 32 [0 ffffffff 15 800] ------- [21:255 -1:255 32 0] 
r 0.524607127 _0_ RTR  --- 10 message 32 [0 ffffffff 15 800] ------- [21:255 -1:255 32 0] 
r 0.524607509 _9_ RTR  --- 10 message 32 [0 ffffffff 15 800] ------- [21:255 -1:255 32 0] 
s 0.627186592 _9_ RTR  --- 11 message 32 [0 0 0 0] ------- [9:255 -1:255 32 0] 
s 0.627321592 _9_ MAC  --- 11 message 90 [0 ffffffff 9 800] ------- [9:255 -1:255 32 0] 
r 0.628042053 _26_ MAC  --- 11 message 32 [0 ffffffff 9 800] ------- [9:255 -1:255 32 0] 
r 0.628042205 _27_ MAC  --- 11 message 32 [0 ffffffff 9 800] ------- [9:255 -1:255 32 0] 
r 0.628042223 _12_ MAC  --- 11 message 32 [0 ffffffff 9 800] ------- [9:255 -1:255 32 0] 
r 0.628042251 _15_ MAC  --- 11 message 32 [0 ffffffff 9 800] ------- [9:255 -1:255 32 0] 
r 0.628042292 _21_ MAC  --- 11 message 32 [0 ffffffff 9 800] ------- [9:255 -1:255 32 0] 
r 0.628042310 _0_ MAC  --- 11 message 32 [0 ffffffff 9 800] ------- [9:255 -1:255 32 0] 
r 0.628042315 _28_ MAC  --- 11 message 32 [0 ffffffff 9 800] ------- [9:255 -1:255 32 0] 
r 0.628067053 _26_ RTR  --- 11 message 32 [0 ffffffff 9 800] ------- [9:255 -1:255 32 0] 
r 0.628067205 _27_ RTR  --- 11 message 32 [0 ffffffff 9 800] ------- [9:255 -1:255 32 0] 
r 0.628067223 _12_ RTR  --- 11 message 32 [0 ffffffff 9 800] ------- [9:255 -1:255 32 0] 
r 0.628067251 _15_ RTR  --- 11 message 32 [0 ffffffff 9 800] ------- [9:255 -1:255 32 0] 
r 0.628067292 _21_ RTR  --- 11 message 32 [0 ffffffff 9 800] ------- [9:255 -1:255 32 0] 
r 0.628067310 _0_ RTR  --- 11 message 32 [0 ffffffff 9 800] ------- [9:255 -1:255 32 0] 
r 0.628067315 _28_ RTR  --- 11 message 32 [0 ffffffff 9 800] ------- [9:255 -1:255 32 0] 
s 0.634670006 _5_ RTR  --- 12 message 32 [0 0 0 0] ------- [5:255 -1:255 32 0] 
s 0.634865006 _5_ MAC  --- 12 message 90 [0 ffffffff 5 800] ------- [5:255 -1:255 32 0] 
r 0.635585736 _14_ MAC  --- 12 message 32 [0 ffffffff 5 800] ------- [5:255 -1:255 32 0] 
r 0.635610736 _14_ RTR  --- 12 message 32 [0 ffffffff 5 800] ------- [5:255 -1:255 32 0] 
s 0.705637875 _20_ RTR  --- 13 message 32 [0 0 0 0] ------- [20:255 -1:255 32 0] 
s 0.706012875 _20_ MAC  --- 13 message 90 [0 ffffffff 14 800] ------- [20:255 -1:255 32 0] 
r 0.706733501 _4_ MAC  --- 13 message 32 [0 ffffffff 14 800] ------- [20:255 -1:255 32 0] 
r 0.706733680 _17_ MAC  --- 13 message 32 [0 ffffffff 14 800] ------- [20:255 -1:255 32 0] 
r 0.706758501 _4_ RTR  --- 13 message 32 [0 ffffffff 14 800] ------- [20:255 -1:255 32 0] 
r 0.706758680 _17_ RTR  --- 13 message 32 [0 ffffffff 14 800] ------- [20:255 -1:255 32 0] 
s 0.821435127 _22_ RTR  --- 14 message 32 [0 0 0 0] ------- [22:255 -1:255 32 0] 
s 0.821550127 _22_ MAC  --- 14 message 90 [0 ffffffff 16 800] ------- [22:255 -1:255 32 0] 
r 0.822270813 _23_ MAC  --- 14 message 32 [0 ffffffff 16 800] ------- [22:255 -1:255 32 0] 
r 0.822270858 _12_ MAC  --- 14 message 32 [0 ffffffff 16 800] ------- [22:255 -1:255 32 0] 
r 0.822270951 _24_ MAC  --- 14 message 32 [0 ffffffff 16 800] ------- [22:255 -1:255 32 0] 
r 0.822295813 _23_ RTR  --- 14 message 32 [0 ffffffff 16 800] ------- [22:255 -1:255 32 0] 
r 0.822295858 _12_ RTR  --- 14 message 32 [0 ffffffff 16 800] ------- [22:255 -1:255 32 0] 
r 0.822295951 _24_ RTR  --- 14 message 32 [0 ffffffff 16 800] ------- [22:255 -1:255 32 0] 
s 0.848147771 _16_ RTR  --- 15 message 32 [0 0 0 0] ------- [16:255 -1:255 32 0] 
s 0.848382771 _16_ MAC  --- 15 message 90 [0 ffffffff 10 800] ------- [16:255 -1:255 32 0] 
r 0.849103453 _0_ MAC  --- 15 message 32 [0 ffffffff 10 800] ------- [16:255 -1:255 32 0] 
r 0.849103504 _8_ MAC  --- 15 message 32 [0 ffffffff 10 800] ------- [16:255 -1:255 32 0] 
r 0.849128453 _0_ RTR  --- 15 message 32 [0 ffffffff 10 800] ------- [16:255 -1:255 32 0] 
r 0.849128504 _8_ RTR  --- 15 message 32 [0 ffffffff 10 800] ------- [16:255 -1:255 32 0] 
s 0.882674688 _3_ RTR  --- 16 message 32 [0 0 0 0] ------- [3:255 -1:255 32 0] 
s 0.882909688 _3_ MAC  --- 16 message 90 [0 ffffffff 3 800] ------- [3:255 -1:255 32 0] 
r 0.883630118 _4_ MAC  --- 16 message 32 [0 ffffffff 3 800] ------- [3:255 -1:255 32 0] 
r 0.883630222 _7_ MAC  --- 16 message 32 [0 ffffffff 3 800] ------- [3:255 -1:255 32 0] 
r 0.883630235 _18_ MAC  --- 16 message 32 [0 ffffffff 3 800] ------- [3:255 -1:255 32 0] 
r 0.883630272 _13_ MAC  --- 16 message 32 [0 ffffffff 3 800] ------- [3:255 -1:255 32 0] 
r 0.883630335 _17_ MAC  --- 16 message 32 [0 ffffffff 3 800] ------- [3:255 -1:255 32 0] 
r 0.883630342 _28_ MAC  --- 16 message 32 [0 ffffffff 3 800] ------- [3:255 -1:255 32 0] 
r 0.883655118 _4_ RTR  --- 16 message 32 [0 ffffffff 3 800] ------- [3:255 -1:255 32 0] 
r 0.883655222 _7_ RTR  --- 16 message 32 [0 ffffffff 3 800] ------- [3:255 -1:255 32 0] 
r 0.883655235 _18_ RTR  --- 16 message 32 [0 ffffffff 3 800] ------- [3:255 -1:255 32 0] 
r 0.883655272 _13_ RTR  --- 16 message 32 [0 ffffffff 3 800] ------- [3:255 -1:255 32 0] 
r 0.883655335 _17_ RTR  --- 16 message 32 [0 ffffffff 3 800] ------- [3:255 -1:255 32 0] 
r 0.883655342 _28_ RTR  --- 16 message 32 [0 ffffffff 3 800] ------- [3:255 -1:255 32 0] 
s 0.935449221 _24_ RTR  --- 17 message 32 [0 0 0 0] ------- [24:255 -1:255 32 0] 
s 0.935884221 _24_ MAC  --- 17 message 90 [0 ffffffff 18 800] ------- [24:255 -1:255 32 0] 
r 0.936604560 _15_ MAC  --- 17 message 32 [0 ffffffff 18 800] ------- [24:255 -1:255 32 0] 
r 0.936604573 _12_ MAC  --- 17 message 32 [0 ffffffff 18 800] ------- [24:255 -1:255 32 0] 
r 0.936604787 _19_ MAC  --- 17 message 32 [0 ffffffff 18 800] ------- [24:255 -1:255 32 0] 
r 0.936604913 _18_ MAC  --- 17 message 32 [0 ffffffff 18 800] ------- [24:255 -1:255 32 0] 
r 0.936604916 _28_ MAC  --- 17 message 32 [0 ffffffff 18 800] ------- [24:255 -1:255 32 0] 
r 0.936604925 _7_ MAC  --- 17 message 32 [0 ffffffff 18 800] ------- [24:255 -1:255 32 0] 
r 0.936604988 _13_ MAC  --- 17 message 32 [0 ffffffff 18 800] ------- [24:255 -1:255 32 0] 
r 0.936605001 _26_ MAC  --- 17 message 32 [0 ffffffff 18 800] ------- [24:255 -1:255 32 0] 
r 0.936605044 _22_ MAC  --- 17 message 32 [0 ffffffff 18 800] ------- [24:255 -1:255 32 0] 
r 0.936605051 _10_ MAC  --- 17 message 32 [0 ffffffff 18 800] ------- [24:255 -1:255 32 0] 
r 0.936629560 _15_ RTR  --- 17 message 32 [0 ffffffff 18 800] ------- [24:255 -1:255 32 0] 
r 0.936629573 _12_ RTR  --- 17 message 32 [0 ffffffff 18 800] ------- [24:255 -1:255 32 0] 
r 0.936629787 _19_ RTR  --- 17 message 32 [0 ffffffff 18 800] ------- [24:255 -1:255 32 0] 
r 0.936629913 _18_ RTR  --- 17 message 32 [0 ffffffff 18 800] ------- [24:255 -1:255 32 0] 
r 0.936629916 _28_ RTR  --- 17 message 32 [0 ffffffff 18 800] ------- [24:255 -1:255 32 0] 
r 0.936629925 _7_ RTR  --- 17 message 32 [0 ffffffff 18 800] ------- [24:255 -1:255 32 0] 
r 0.936629988 _13_ RTR  --- 17 message 32 [0 ffffffff 18 800] ------- [24:255 -1:255 32 0] 
r 0.936630001 _26_ RTR  --- 17 message 32 [0 ffffffff 18 800] ------- [24:255 -1:255 32 0] 
r 0.936630044 _22_ RTR  --- 17 message 32 [0 ffffffff 18 800] ------- [24:255 -1:255 32 0] 
r 0.936630051 _10_ RTR  --- 17 message 32 [0 ffffffff 18 800] ------- [24:255 -1:255 32 0] 
M 1.00000 0 (3385.00, 3955.00, 0.00), (3561.00, 3841.00), 10.00
s 1.000000000 _0_ AGT  --- 18 tcp 40 [0 0 0 0] ------- [0:0 29:0 32 0] [0 0] 0 0
r 1.000000000 _0_ RTR  --- 18 tcp 40 [0 0 0 0] ------- [0:0 29:0 32 0] [0 0] 0 0
1.00000  0  0  29 0  maxseq_ 0
s 1.039009780 _23_ RTR  --- 19 message 32 [0 0 0 0] ------- [23:255 -1:255 32 0] 
s 1.039404780 _23_ MAC  --- 19 message 90 [0 ffffffff 17 800] ------- [23:255 -1:255 32 0] 
r 1.040125304 _25_ MAC  --- 19 message 32 [0 ffffffff 17 800] ------- [23:255 -1:255 32 0] 
r 1.040125349 _19_ MAC  --- 19 message 32 [0 ffffffff 17 800] ------- [23:255 -1:255 32 0] 
r 1.040125465 _22_ MAC  --- 19 message 32 [0 ffffffff 17 800] ------- [23:255 -1:255 32 0] 
r 1.040125544 _6_ MAC  --- 19 message 32 [0 ffffffff 17 800] ------- [23:255 -1:255 32 0] 
r 1.040150304 _25_ RTR  --- 19 message 32 [0 ffffffff 17 800] ------- [23:255 -1:255 32 0] 
r 1.040150349 _19_ RTR  --- 19 message 32 [0 ffffffff 17 800] ------- [23:255 -1:255 32 0] 
r 1.040150465 _22_ RTR  --- 19 message 32 [0 ffffffff 17 800] ------- [23:255 -1:255 32 0] 
r 1.040150544 _6_ RTR  --- 19 message 32 [0 ffffffff 17 800] ------- [23:255 -1:255 32 0] 
s 1.119657716 _0_ RTR  --- 20 message 32 [0 0 0 0] ------- [0:255 -1:255 32 0] 
s 1.119832716 _0_ MAC  --- 20 message 90 [0 ffffffff 0 800] ------- [0:255 -1:255 32 0] 
r 1.120553031 _21_ MAC  --- 20 message 32 [0 ffffffff 0 800] ------- [0:255 -1:255 32 0] 
r 1.120553401 _16_ MAC  --- 20 message 32 [0 ffffffff 0 800] ------- [0:255 -1:255 32 0] 
r 1.120553431 _9_ MAC  --- 20 message 32 [0 ffffffff 0 800] ------- [0:255 -1:255 32 0] 
r 1.120553465 _27_ MAC  --- 20 message 32 [0 ffffffff 0 800] ------- [0:255 -1:255 32 0] 
r 1.120553511 _8_ MAC  --- 20 message 32 [0 ffffffff 0 800] ------- [0:255 -1:255 32 0] 
r 1.120578031 _21_ RTR  --- 20 message 32 [0 ffffffff 0 800] ------- [0:255 -1:255 32 0] 
r 1.120578401 _16_ RTR  --- 20 message 32 [0 ffffffff 0 800] ------- [0:255 -1:255 32 0] 
r 1.120578431 _9_ RTR  --- 20 message 32 [0 ffffffff 0 800] ------- [0:255 -1:255 32 0] 
r 1.120578465 _27_ RTR  --- 20 message 32 [0 ffffffff 0 800] ------- [0:255 -1:255 32 0] 
r 1.120578511 _8_ RTR  --- 20 message 32 [0 ffffffff 0 800] ------- [0:255 -1:255 32 0] 
s 1.277890258 _8_ RTR  --- 21 message 32 [0 0 0 0] ------- [8:255 -1:255 32 0] 
s 1.278565258 _8_ MAC  --- 21 message 90 [0 ffffffff 8 800] ------- [8:255 -1:255 32 0] 
r 1.279285596 _2_ MAC  --- 21 message 32 [0 ffffffff 8 800] ------- [8:255 -1:255 32 0] 
r 1.279285764 _27_ MAC  --- 21 message 32 [0 ffffffff 8 800] ------- [8:255 -1:255 32 0] 
r 1.279285991 _16_ MAC  --- 21 message 32 [0 ffffffff 8 800] ------- [8:255 -1:255 32 0] 
r 1.279286057 _0_ MAC  --- 21 message 32 [0 ffffffff 8 800] ------- [8:255 -1:255 32 0] 
r 1.279310596 _2_ RTR  --- 21 message 32 [0 ffffffff 8 800] ------- [8:255 -1:255 32 0] 
r 1.279310764 _27_ RTR  --- 21 message 32 [0 ffffffff 8 800] ------- [8:255 -1:255 32 0] 
r 1.279310991 _16_ RTR  --- 21 message 32 [0 ffffffff 8 800] ------- [8:255 -1:255 32 0] 
r 1.279311057 _0_ RTR  --- 21 message 32 [0 ffffffff 8 800] ------- [8:255 -1:255 32 0] 
s 1.281327089 _13_ RTR  --- 22 message 32 [0 0 0 0] ------- [13:255 -1:255 32 0] 
s 1.281462089 _13_ MAC  --- 22 message 90 [0 ffffffff d 800] ------- [13:255 -1:255 32 0] 
r 1.282182234 _18_ MAC  --- 22 message 32 [0 ffffffff d 800] ------- [13:255 -1:255 32 0] 
r 1.282182415 _17_ MAC  --- 22 message 32 [0 ffffffff d 800] ------- [13:255 -1:255 32 0] 
r 1.282182445 _10_ MAC  --- 22 message 32 [0 ffffffff d 800] ------- [13:255 -1:255 32 0] 
r 1.282182590 _7_ MAC  --- 22 message 32 [0 ffffffff d 800] ------- [13:255 -1:255 32 0] 
r 1.282182674 _3_ MAC  --- 22 message 32 [0 ffffffff d 800] ------- [13:255 -1:255 32 0] 
r 1.282182740 _28_ MAC  --- 22 message 32 [0 ffffffff d 800] ------- [13:255 -1:255 32 0] 
r 1.282182754 _15_ MAC  --- 22 message 32 [0 ffffffff d 800] ------- [13:255 -1:255 32 0] 
r 1.282182804 _11_ MAC  --- 22 message 32 [0 ffffffff d 800] ------- [13:255 -1:255 32 0] 
r 1.282182857 _24_ MAC  --- 22 message 32 [0 ffffffff d 800] ------- [13:255 -1:255 32 0] 
r 1.282182857 _19_ MAC  --- 22 message 32 [0 ffffffff d 800] ------- [13:255 -1:255 32 0] 
r 1.282207234 _18_ RTR  --- 22 message 32 [0 ffffffff d 800] ------- [13:255 -1:255 32 0] 
r 1.282207415 _17_ RTR  --- 22 message 32 [0 ffffffff d 800] ------- [13:255 -1:255 32 0] 
r 1.282207445 _10_ RTR  --- 22 message 32 [0 ffffffff d 800] ------- [13:255 -1:255 32 0] 
r 1.282207590 _7_ RTR  --- 22 message 32 [0 ffffffff d 800] ------- [13:255 -1:255 32 0] 
r 1.282207674 _3_ RTR  --- 22 message 32 [0 ffffffff d 800] ------- [13:255 -1:255 32 0] 
r 1.282207740 _28_ RTR  --- 22 message 32 [0 ffffffff d 800] ------- [13:255 -1:255 32 0] 
r 1.282207754 _15_ RTR  --- 22 message 32 [0 ffffffff d 800] ------- [13:255 -1:255 32 0] 
r 1.282207804 _11_ RTR  --- 22 message 32 [0 ffffffff d 800] ------- [13:255 -1:255 32 0] 
r 1.282207857 _24_ RTR  --- 22 message 32 [0 ffffffff d 800] ------- [13:255 -1:255 32 0] 
r 1.282207857 _19_ RTR  --- 22 message 32 [0 ffffffff d 800] ------- [13:255 -1:255 32 0] 
s 1.388842989 _25_ RTR  --- 23 message 32 [0 0 0 0] ------- [25:255 -1:255 32 0] 
s 1.389297989 _25_ MAC  --- 23 message 90 [0 ffffffff 19 800] ------- [25:255 -1:255 32 0] 
r 1.390018459 _29_ MAC  --- 23 message 32 [0 ffffffff 19 800] ------- [25:255 -1:255 32 0] 
r 1.390018513 _23_ MAC  --- 23 message 32 [0 ffffffff 19 800] ------- [25:255 -1:255 32 0] 
r 1.390018642 _6_ MAC  --- 23 message 32 [0 ffffffff 19 800] ------- [25:255 -1:255 32 0] 
r 1.390043459 _29_ RTR  --- 23 message 32 [0 ffffffff 19 800] ------- [25:255 -1:255 32 0] 
r 1.390043513 _23_ RTR  --- 23 message 32 [0 ffffffff 19 800] ------- [25:255 -1:255 32 0] 
r 1.390043642 _6_ RTR  --- 23 message 32 [0 ffffffff 19 800] ------- [25:255 -1:255 32 0] 
s 1.607278916 _4_ RTR  --- 24 message 32 [0 0 0 0] ------- [4:255 -1:255 32 0] 
s 1.607673916 _4_ MAC  --- 24 message 90 [0 ffffffff 4 800] ------- [4:255 -1:255 32 0] 
r 1.608394346 _3_ MAC  --- 24 message 32 [0 ffffffff 4 800] ------- [4:255 -1:255 32 0] 
r 1.608394542 _20_ MAC  --- 24 message 32 [0 ffffffff 4 800] ------- [4:255 -1:255 32 0] 
r 1.608394629 _17_ MAC  --- 24 message 32 [0 ffffffff 4 800] ------- [4:255 -1:255 32 0] 
r 1.608419346 _3_ RTR  --- 24 message 32 [0 ffffffff 4 800] ------- [4:255 -1:255 32 0] 
r 1.608419542 _20_ RTR  --- 24 message 32 [0 ffffffff 4 800] ------- [4:255 -1:255 32 0] 
r 1.608419629 _17_ RTR  --- 24 message 32 [0 ffffffff 4 800] ------- [4:255 -1:255 32 0] 
s 1.616412514 _19_ RTR  --- 25 message 32 [0 0 0 0] ------- [19:255 -1:255 32 0] 
s 1.616627514 _19_ MAC  --- 25 message 90 [0 ffffffff 13 800] ------- [19:255 -1:255 32 0] 
r 1.617348000 _11_ MAC  --- 25 message 32 [0 ffffffff 13 800] ------- [19:255 -1:255 32 0] 
r 1.617348080 _24_ MAC  --- 25 message 32 [0 ffffffff 13 800] ------- [19:255 -1:255 32 0] 
r 1.617348083 _23_ MAC  --- 25 message 32 [0 ffffffff 13 800] ------- [19:255 -1:255 32 0] 
r 1.617348083 _10_ MAC  --- 25 message 32 [0 ffffffff 13 800] ------- [19:255 -1:255 32 0] 
r 1.617348145 _6_ MAC  --- 25 message 32 [0 ffffffff 13 800] ------- [19:255 -1:255 32 0] 
r 1.617348282 _13_ MAC  --- 25 message 32 [0 ffffffff 13 800] ------- [19:255 -1:255 32 0] 
r 1.617348312 _18_ MAC  --- 25 message 32 [0 ffffffff 13 800] ------- [19:255 -1:255 32 0] 
r 1.617348334 _15_ MAC  --- 25 message 32 [0 ffffffff 13 800] ------- [19:255 -1:255 32 0] 
r 1.617373000 _11_ RTR  --- 25 message 32 [0 ffffffff 13 800] ------- [19:255 -1:255 32 0] 
r 1.617373080 _24_ RTR  --- 25 message 32 [0 ffffffff 13 800] ------- [19:255 -1:255 32 0] 
r 1.617373083 _23_ RTR  --- 25 message 32 [0 ffffffff 13 800] ------- [19:255 -1:255 32 0] 
r 1.617373083 _10_ RTR  --- 25 message 32 [0 ffffffff 13 800] ------- [19:255 -1:255 32 0] 
r 1.617373145 _6_ RTR  --- 25 message 32 [0 ffffffff 13 800] ------- [19:255 -1:255 32 0] 
r 1.617373282 _13_ RTR  --- 25 message 32 [0 ffffffff 13 800] ------- [19:255 -1:255 32 0] 
r 1.617373312 _18_ RTR  --- 25 message 32 [0 ffffffff 13 800] ------- [19:255 -1:255 32 0] 
r 1.617373334 _15_ RTR  --- 25 message 32 [0 ffffffff 13 800] ------- [19:255 -1:255 32 0] 
s 1.633347138 _6_ RTR  --- 26 message 32 [0 0 0 0] ------- [6:255 -1:255 32 0] 
s 1.633422138 _6_ MAC  --- 26 message 90 [0 ffffffff 6 800] ------- [6:255 -1:255 32 0] 
r 1.634142478 _11_ MAC  --- 26 message 32 [0 ffffffff 6 800] ------- [6:255 -1:255 32 0] 
r 1.634142558 _29_ MAC  --- 26 message 32 [0 ffffffff 6 800] ------- [6:255 -1:255 32 0] 
r 1.634142769 _19_ MAC  --- 26 message 32 [0 ffffffff 6 800] ------- [6:255 -1:255 32 0] 
r 1.634142792 _25_ MAC  --- 26 message 32 [0 ffffffff 6 800] ------- [6:255 -1:255 32 0] 
r 1.634142841 _10_ MAC  --- 26 message 32 [0 ffffffff 6 800] ------- [6:255 -1:255 32 0] 
r 1.634142903 _23_ MAC  --- 26 message 32 [0 ffffffff 6 800] ------- [6:255 -1:255 32 0] 
r 1.634167478 _11_ RTR  --- 26 message 32 [0 ffffffff 6 800] ------- [6:255 -1:255 32 0] 
r 1.634167558 _29_ RTR  --- 26 message 32 [0 ffffffff 6 800] ------- [6:255 -1:255 32 0] 
r 1.634167769 _19_ RTR  --- 26 message 32 [0 ffffffff 6 800] ------- [6:255 -1:255 32 0] 
r 1.634167792 _25_ RTR  --- 26 message 32 [0 ffffffff 6 800] ------- [6:255 -1:255 32 0] 
r 1.634167841 _10_ RTR  --- 26 message 32 [0 ffffffff 6 800] ------- [6:255 -1:255 32 0] 
r 1.634167903 _23_ RTR  --- 26 message 32 [0 ffffffff 6 800] ------- [6:255 -1:255 32 0] 
s 1.680949487 _10_ RTR  --- 27 message 32 [0 0 0 0] ------- [10:255 -1:255 32 0] 
s 1.681544487 _10_ MAC  --- 27 message 90 [0 ffffffff a 800] ------- [10:255 -1:255 32 0] 
r 1.682264842 _13_ MAC  --- 27 message 32 [0 ffffffff a 800] ------- [10:255 -1:255 32 0] 
r 1.682264850 _11_ MAC  --- 27 message 32 [0 ffffffff a 800] ------- [10:255 -1:255 32 0] 
r 1.682264855 _17_ MAC  --- 27 message 32 [0 ffffffff a 800] ------- [10:255 -1:255 32 0] 
r 1.682264963 _18_ MAC  --- 27 message 32 [0 ffffffff a 800] ------- [10:255 -1:255 32 0] 
r 1.682265056 _19_ MAC  --- 27 message 32 [0 ffffffff a 800] ------- [10:255 -1:255 32 0] 
r 1.682265189 _6_ MAC  --- 27 message 32 [0 ffffffff a 800] ------- [10:255 -1:255 32 0] 