s 0.035182811 _0_ RTR  --- 0 message 32 [0 0 0 0] ------- [0:255 -1:255 32 0] 
s 0.035397811 _0_ MAC  --- 0 message 90 [0 ffffffff 0 800] ------- [0:255 -1:255 32 0] 
r 0.036118129 _21_ MAC  --- 0 message 32 [0 ffffffff 0 800] ------- [0:255 -1:255 32 0] 
r 0.036118492 _16_ MAC  --- 0 message 32 [0 ffffffff 0 800] ------- [0:255 -1:255 32 0] 
r 0.036118529 _9_ MAC  --- 0 message 32 [0 ffffffff 0 800] ------- [0:255 -1:255 32 0] 
r 0.036118559 _27_ MAC  --- 0 message 32 [0 ffffffff 0 800] ------- [0:255 -1:255 32 0] 
r 0.036118603 _8_ MAC  --- 0 message 32 [0 ffffffff 0 800] ------- [0:255 -1:255 32 0] 
r 0.036143129 _21_ RTR  --- 0 message 32 [0 ffffffff 0 800] ------- [0:255 -1:255 32 0] 
r 0.036143492 _16_ RTR  --- 0 message 32 [0 ffffffff 0 800] ------- [0:255 -1:255 32 0] 
r 0.036143529 _9_ RTR  --- 0 message 32 [0 ffffffff 0 800] ------- [0:255 -1:255 32 0] 
r 0.036143559 _27_ RTR  --- 0 message 32 [0 ffffffff 0 800] ------- [0:255 -1:255 32 0] 
r 0.036143603 _8_ RTR  --- 0 message 32 [0 ffffffff 0 800] ------- [0:255 -1:255 32 0] 
s 0.086681100 _11_ RTR  --- 1 message 32 [0 0 0 0] ------- [11:255 -1:255 32 0] 
s 0.086856100 _11_ MAC  --- 1 message 90 [0 ffffffff b 800] ------- [11:255 -1:255 32 0] 
r 0.087576440 _6_ MAC  --- 1 message 32 [0 ffffffff b 800] ------- [11:255 -1:255 32 0] 
r 0.087576463 _10_ MAC  --- 1 message 32 [0 ffffffff b 800] ------- [11:255 -1:255 32 0] 
r 0.087576586 _19_ MAC  --- 1 message 32 [0 ffffffff b 800] ------- [11:255 -1:255 32 0] 
r 0.087576783 _17_ MAC  --- 1 message 32 [0 ffffffff b 800] ------- [11:255 -1:255 32 0] 
r 0.087576814 _13_ MAC  --- 1 message 32 [0 ffffffff b 800] ------- [11:255 -1:255 32 0] 
r 0.087576859 _29_ MAC  --- 1 message 32 [0 ffffffff b 800] ------- [11:255 -1:255 32 0] 
r 0.087576923 _18_ MAC  --- 1 message 32 [0 ffffffff b 800] ------- [11:255 -1:255 32 0] 
r 0.087601440 _6_ RTR  --- 1 message 32 [0 ffffffff b 800] ------- [11:255 -1:255 32 0] 
r 0.087601463 _10_ RTR  --- 1 message 32 [0 ffffffff b 800] ------- [11:255 -1:255 32 0] 
r 0.087601586 _19_ RTR  --- 1 message 32 [0 ffffffff b 800] ------- [11:255 -1:255 32 0] 
r 0.087601783 _17_ RTR  --- 1 message 32 [0 ffffffff b 800] ------- [11:255 -1:255 32 0] 
r 0.087601814 _13_ RTR  --- 1 message 32 [0 ffffffff b 800] ------- [11:255 -1:255 32 0] 
r 0.087601859 _29_ RTR  --- 1 message 32 [0 ffffffff b 800] ------- [11:255 -1:255 32 0] 
r 0.087601923 _18_ RTR  --- 1 message 32 [0 ffffffff b 800] ------- [11:255 -1:255 32 0] 
s 0.185707992 _1_ RTR  --- 2 message 32 [0 0 0 0] ------- [1:255 -1:255 32 0] 
s 0.186362992 _1_ MAC  --- 2 message 90 [0 ffffffff 1 800] ------- [1:255 -1:255 32 0] 
r 0.187083808 _14_ MAC  --- 2 message 32 [0 ffffffff 1 800] ------- [1:255 -1:255 32 0] 
r 0.187108808 _14_ RTR  --- 2 message 32 [0 ffffffff 1 800] ------- [1:255 -1:255 32 0] 
s 0.188385792 _17_ RTR  --- 3 message 32 [0 0 0 0] ------- [17:255 -1:255 32 0] 
s 0.188960792 _17_ MAC  --- 3 message 90 [0 ffffffff 11 800] ------- [17:255 -1:255 32 0] 
r 0.189681118 _13_ MAC  --- 3 message 32 [0 ffffffff 11 800] ------- [17:255 -1:255 32 0] 
r 0.189681160 _10_ MAC  --- 3 message 32 [0 ffffffff 11 800] ------- [17:255 -1:255 32 0] 
r 0.189681252 _18_ MAC  --- 3 message 32 [0 ffffffff 11 800] ------- [17:255 -1:255 32 0] 
r 0.189681440 _3_ MAC  --- 3 message 32 [0 ffffffff 11 800] ------- [17:255 -1:255 32 0] 
r 0.189681476 _11_ MAC  --- 3 message 32 [0 ffffffff 11 800] ------- [17:255 -1:255 32 0] 
r 0.189681506 _4_ MAC  --- 3 message 32 [0 ffffffff 11 800] ------- [17:255 -1:255 32 0] 
r 0.189681580 _7_ MAC  --- 3 message 32 [0 ffffffff 11 800] ------- [17:255 -1:255 32 0] 
r 0.189681598 _20_ MAC  --- 3 message 32 [0 ffffffff 11 800] ------- [17:255 -1:255 32 0] 
r 0.189706118 _13_ RTR  --- 3 message 32 [0 ffffffff 11 800] ------- [17:255 -1:255 32 0] 
r 0.189706160 _10_ RTR  --- 3 message 32 [0 ffffffff 11 800] ------- [17:255 -1:255 32 0] 
r 0.189706252 _18_ RTR  --- 3 message 32 [0 ffffffff 11 800] ------- [17:255 -1:255 32 0] 
r 0.189706440 _3_ RTR  --- 3 message 32 [0 ffffffff 11 800] ------- [17:255 -1:255 32 0] 
r 0.189706476 _11_ RTR  --- 3 message 32 [0 ffffffff 11 800] ------- [17:255 -1:255 32 0] 
r 0.189706506 _4_ RTR  --- 3 message 32 [0 ffffffff 11 800] ------- [17:255 -1:255 32 0] 
r 0.189706580 _7_ RTR  --- 3 message 32 [0 ffffffff 11 800] ------- [17:255 -1:255 32 0] 
r 0.189706598 _20_ RTR  --- 3 message 32 [0 ffffffff 11 800] ------- [17:255 -1:255 32 0] 
s 0.234302736 _13_ RTR  --- 4 message 32 [0 0 0 0] ------- [13:255 -1:255 32 0] 
s 0.234857736 _13_ MAC  --- 4 message 90 [0 ffffffff d 800] ------- [13:255 -1:255 32 0] 
r 0.235577880 _18_ MAC  --- 4 message 32 [0 ffffffff d 800] ------- [13:255 -1:255 32 0] 
r 0.235578062 _17_ MAC  --- 4 message 32 [0 ffffffff d 800] ------- [13:255 -1:255 32 0] 
r 0.235578091 _10_ MAC  --- 4 message 32 [0 ffffffff d 800] ------- [13:255 -1:255 32 0] 
r 0.235578237 _7_ MAC  --- 4 message 32 [0 ffffffff d 800] ------- [13:255 -1:255 32 0] 
r 0.235578321 _3_ MAC  --- 4 message 32 [0 ffffffff d 800] ------- [13:255 -1:255 32 0] 
r 0.235578387 _28_ MAC  --- 4 message 32 [0 ffffffff d 800] ------- [13:255 -1:255 32 0] 
r 0.235578401 _15_ MAC  --- 4 message 32 [0 ffffffff d 800] ------- [13:255 -1:255 32 0] 
r 0.235578450 _11_ MAC  --- 4 message 32 [0 ffffffff d 800] ------- [13:255 -1:255 32 0] 
r 0.235578503 _24_ MAC  --- 4 message 32 [0 ffffffff d 800] ------- [13:255 -1:255 32 0] 
r 0.235578504 _19_ MAC  --- 4 message 32 [0 ffffffff d 800] ------- [13:255 -1:255 32 0] 
r 0.235602880 _18_ RTR  --- 4 message 32 [0 ffffffff d 800] ------- [13:255 -1:255 32 0] 
r 0.235603062 _17_ RTR  --- 4 message 32 [0 ffffffff d 800] ------- [13:255 -1:255 32 0] 
r 0.235603091 _10_ RTR  --- 4 message 32 [0 ffffffff d 800] ------- [13:255 -1:255 32 0] 
r 0.235603237 _7_ RTR  --- 4 message 32 [0 ffffffff d 800] ------- [13:255 -1:255 32 0] 
r 0.235603321 _3_ RTR  --- 4 message 32 [0 ffffffff d 800] ------- [13:255 -1:255 32 0] 
r 0.235603387 _28_ RTR  --- 4 message 32 [0 ffffffff d 800] ------- [13:255 -1:255 32 0] 
r 0.235603401 _15_ RTR  --- 4 message 32 [0 ffffffff d 800] ------- [13:255 -1:255 32 0] 
r 0.235603450 _11_ RTR  --- 4 message 32 [0 ffffffff d 800] ------- [13:255 -1:255 32 0] 
r 0.235603503 _24_ RTR  --- 4 message 32 [0 ffffffff d 800] ------- [13:255 -1:255 32 0] 
r 0.235603504 _19_ RTR  --- 4 message 32 [0 ffffffff d 800] ------- [13:255 -1:255 32 0] 
s 0.337057370 _10_ RTR  --- 5 message 32 [0 0 0 0] ------- [10:255 -1:255 32 0] 
s 0.337292370 _10_ MAC  --- 5 message 90 [0 ffffffff a 800] ------- [10:255 -1:255 32 0] 
r 0.338012725 _13_ MAC  --- 5 message 32 [0 ffffffff a 800] ------- [10:255 -1:255 32 0] 
r 0.338012733 _11_ MAC  --- 5 message 32 [0 ffffffff a 800] ------- [10:255 -1:255 32 0] 
r 0.338012738 _17_ MAC  --- 5 message 32 [0 ffffffff a 800] ------- [10:255 -1:255 32 0] 
r 0.338012846 _18_ MAC  --- 5 message 32 [0 ffffffff a 800] ------- [10:255 -1:255 32 0] 
r 0.338012939 _19_ MAC  --- 5 message 32 [0 ffffffff a 800] ------- [10:255 -1:255 32 0] 
r 0.338013072 _6_ MAC  --- 5 message 32 [0 ffffffff a 800] ------- [10:255 -1:255 32 0] 
r 0.338013199 _7_ MAC  --- 5 message 32 [0 ffffffff a 800] ------- [10:255 -1:255 32 0] 
r 0.338013200 _24_ MAC  --- 5 message 32 [0 ffffffff a 800] ------- [10:255 -1:255 32 0] 
r 0.338037725 _13_ RTR  --- 5 message 32 [0 ffffffff a 800] ------- [10:255 -1:255 32 0] 
r 0.338037733 _11_ RTR  --- 5 message 32 [0 ffffffff a 800] ------- [10:255 -1:255 32 0] 
r 0.338037738 _17_ RTR  --- 5 message 32 [0 ffffffff a 800] ------- [10:255 -1:255 32 0] 
r 0.338037846 _18_ RTR  --- 5 message 32 [0 ffffffff a 800] ------- [10:255 -1:255 32 0] 
r 0.338037939 _19_ RTR  --- 5 message 32 [0 ffffffff a 800] ------- [10:255 -1:255 32 0] 
r 0.338038072 _6_ RTR  --- 5 message 32 [0 ffffffff a 800] ------- [10:255 -1:255 32 0] 
r 0.338038199 _7_ RTR  --- 5 message 32 [0 ffffffff a 800] ------- [10:255 -1:255 32 0] 
r 0.338038200 _24_ RTR  --- 5 message 32 [0 ffffffff a 800] ------- [10:255 -1:255 32 0] 
s 0.349886082 _16_ RTR  --- 6 message 32 [0 0 0 0] ------- [16:255 -1:255 32 0] 
s 0.349961082 _16_ MAC  --- 6 message 90 [0 ffffffff 10 800] ------- [16:255 -1:255 32 0] 
r 0.350681764 _0_ MAC  --- 6 message 32 [0 ffffffff 10 800] ------- [16:255 -1:255 32 0] 
r 0.350681815 _8_ MAC  --- 6 message 32 [0 ffffffff 10 800] ------- [16:255 -1:255 32 0] 
r 0.350706764 _0_ RTR  --- 6 message 32 [0 ffffffff 10 800] ------- [16:255 -1:255 32 0] 
r 0.350706815 _8_ RTR  --- 6 message 32 [0 ffffffff 10 800] ------- [16:255 -1:255 32 0] 
s 0.443787081 _27_ RTR  --- 7 message 32 [0 0 0 0] ------- [27:255 -1:255 32 0] 
s 0.443882081 _27_ MAC  --- 7 message 90 [0 ffffffff 1b 800] ------- [27:255 -1:255 32 0] 
r 0.444602320 _2_ MAC  --- 7 message 32 [0 ffffffff 1b 800] ------- [27:255 -1:255 32 0] 
r 0.444602586 _8_ MAC  --- 7 message 32 [0 ffffffff 1b 800] ------- [27:255 -1:255 32 0] 
r 0.444602694 _9_ MAC  --- 7 message 32 [0 ffffffff 1b 800] ------- [27:255 -1:255 32 0] 
r 0.444602772 _12_ MAC  --- 7 message 32 [0 ffffffff 1b 800] ------- [27:255 -1:255 32 0] 
r 0.444602829 _0_ MAC  --- 7 message 32 [0 ffffffff 1b 800] ------- [27:255 -1:255 32 0] 
r 0.444627320 _2_ RTR  --- 7 message 32 [0 ffffffff 1b 800] ------- [27:255 -1:255 32 0] 
r 0.444627586 _8_ RTR  --- 7 message 32 [0 ffffffff 1b 800] ------- [27:255 -1:255 32 0] 
r 0.444627694 _9_ RTR  --- 7 message 32 [0 ffffffff 1b 800] ------- [27:255 -1:255 32 0] 
r 0.444627772 _12_ RTR  --- 7 message 32 [0 ffffffff 1b 800] ------- [27:255 -1:255 32 0] 
r 0.444627829 _0_ RTR  --- 7 message 32 [0 ffffffff 1b 800] ------- [27:255 -1:255 32 0] 
s 0.470990782 _6_ RTR  --- 8 message 32 [0 0 0 0] ------- [6:255 -1:255 32 0] 
s 0.471365782 _6_ MAC  --- 8 message 90 [0 ffffffff 6 800] ------- [6:255 -1:255 32 0] 
r 0.472086122 _11_ MAC  --- 8 message 32 [0 ffffffff 6 800] ------- [6:255 -1:255 32 0] 
r 0.472086202 _29_ MAC  --- 8 message 32 [0 ffffffff 6 800] ------- [6:255 -1:255 32 0] 
r 0.472086413 _19_ MAC  --- 8 message 32 [0 ffffffff 6 800] ------- [6:255 -1:255 32 0] 
r 0.472086436 _25_ MAC  --- 8 message 32 [0 ffffffff 6 800] ------- [6:255 -1:255 32 0] 
r 0.472086485 _10_ MAC  --- 8 message 32 [0 ffffffff 6 800] ------- [6:255 -1:255 32 0] 
r 0.472086547 _23_ MAC  --- 8 message 32 [0 ffffffff 6 800] ------- [6:255 -1:255 32 0] 
r 0.472111122 _11_ RTR  --- 8 message 32 [0 ffffffff 6 800] ------- [6:255 -1:255 32 0] 
r 0.472111202 _29_ RTR  --- 8 message 32 [0 ffffffff 6 800] ------- [6:255 -1:255 32 0] 
r 0.472111413 _19_ RTR  --- 8 message 32 [0 ffffffff 6 800] ------- [6:255 -1:255 32 0] 
r 0.472111436 _25_ RTR  --- 8 message 32 [0 ffffffff 6 800] ------- [6:255 -1:255 32 0] 
r 0.472111485 _10_ RTR  --- 8 message 32 [0 ffffffff 6 800] ------- [6:255 -1:255 32 0] 
r 0.472111547 _23_ RTR  --- 8 message 32 [0 ffffffff 6 800] ------- [6:255 -1:255 32 0] 
s 0.482952590 _28_ RTR  --- 9 message 32 [0 0 0 0] ------- [28:255 -1:255 32 0] 
s 0.483227590 _28_ MAC  --- 9 message 90 [0 ffffffff 1c 800] ------- [28:255 -1:255 32 0] 
r 0.483947749 _7_ MAC  --- 9 message 32 [0 ffffffff 1c 800] ------- [28:255 -1:255 32 0] 
r 0.483947892 _26_ MAC  --- 9 message 32 [0 ffffffff 1c 800] ------- [28:255 -1:255 32 0] 
r 0.483947951 _15_ MAC  --- 9 message 32 [0 ffffffff 1c 800] ------- [28:255 -1:255 32 0] 
r 0.483948097 _18_ MAC  --- 9 message 32 [0 ffffffff 1c 800] ------- [28:255 -1:255 32 0] 
r 0.483948241 _13_ MAC  --- 9 message 32 [0 ffffffff 1c 800] ------- [28:255 -1:255 32 0] 
r 0.483948245 _3_ MAC  --- 9 message 32 [0 ffffffff 1c 800] ------- [28:255 -1:255 32 0] 
r 0.483948285 _24_ MAC  --- 9 message 32 [0 ffffffff 1c 800] ------- [28:255 -1:255 32 0] 
r 0.483948313 _9_ MAC  --- 9 message 32 [0 ffffffff 1c 800] ------- [28:255 -1:255 32 0] 
r 0.483948420 _12_ MAC  --- 9 message 32 [0 ffffffff 1c 800] ------- [28:255 -1:255 32 0] 
r 0.483972749 _7_ RTR  --- 9 message 32 [0 ffffffff 1c 800] ------- [28:255 -1:255 32 0] 
r 0.483972892 _26_ RTR  --- 9 message 32 [0 ffffffff 1c 800] ------- [28:255 -1:255 32 0] 
r 0.483972951 _15_ RTR  --- 9 message 32 [0 ffffffff 1c 800] ------- [28:255 -1:255 32 0] 
r 0.483973097 _18_ RTR  --- 9 message 32 [0 ffffffff 1c 800] ------- [28:255 -1:255 32 0] 
r 0.483973241 _13_ RTR  --- 9 message 32 [0 ffffffff 1c 800] ------- [28:255 -1:255 32 0] 
r 0.483973245 _3_ RTR  --- 9 message 32 [0 ffffffff 1c 800] ------- [28:255 -1:255 32 0] 
r 0.483973285 _24_ RTR  --- 9 message 32 [0 ffffffff 1c 800] ------- [28:255 -1:255 32 0] 
r 0.483973313 _9_ RTR  --- 9 message 32 [0 ffffffff 1c 800] ------- [28:255 -1:255 32 0] 
r 0.483973420 _12_ RTR  --- 9 message 32 [0 ffffffff 1c 800] ------- [28:255 -1:255 32 0] 
s 0.520388098 _20_ RTR  --- 10 message 32 [0 0 0 0] ------- [20:255 -1:255 32 0] 
s 0.520663098 _20_ MAC  --- 10 message 90 [0 ffffffff 14 800] ------- [20:255 -1:255 32 0] 
r 0.521383725 _4_ MAC  --- 10 message 32 [0 ffffffff 14 800] ------- [20:255 -1:255 32 0] 
r 0.521383903 _17_ MAC  --- 10 message 32 [0 ffffffff 14 800] ------- [20:255 -1:255 32 0] 
r 0.521408725 _4_ RTR  --- 10 message 32 [0 ffffffff 14 800] ------- [20:255 -1:255 32 0] 
r 0.521408903 _17_ RTR  --- 10 message 32 [0 ffffffff 14 800] ------- [20:255 -1:255 32 0] 
s 0.625438533 _8_ RTR  --- 11 message 32 [0 0 0 0] ------- [8:255 -1:255 32 0] 
s 0.625633533 _8_ MAC  --- 11 message 90 [0 ffffffff 8 800] ------- [8:255 -1:255 32 0] 
r 0.626353871 _2_ MAC  --- 11 message 32 [0 ffffffff 8 800] ------- [8:255 -1:255 32 0] 
r 0.626354039 _27_ MAC  --- 11 message 32 [0 ffffffff 8 800] ------- [8:255 -1:255 32 0] 
r 0.626354266 _16_ MAC  --- 11 message 32 [0 ffffffff 8 800] ------- [8:255 -1:255 32 0] 
r 0.626354326 _0_ MAC  --- 11 message 32 [0 ffffffff 8 800] ------- [8:255 -1:255 32 0] 
r 0.626378871 _2_ RTR  --- 11 message 32 [0 ffffffff 8 800] ------- [8:255 -1:255 32 0] 
r 0.626379039 _27_ RTR  --- 11 message 32 [0 ffffffff 8 800] ------- [8:255 -1:255 32 0] 
r 0.626379266 _16_ RTR  --- 11 message 32 [0 ffffffff 8 800] ------- [8:255 -1:255 32 0] 
r 0.626379326 _0_ RTR  --- 11 message 32 [0 ffffffff 8 800] ------- [8:255 -1:255 32 0] 
s 0.633281949 _4_ RTR  --- 12 message 32 [0 0 0 0] ------- [4:255 -1:255 32 0] 
s 0.633956949 _4_ MAC  --- 12 message 90 [0 ffffffff 4 800] ------- [4:255 -1:255 32 0] 
r 0.634677378 _3_ MAC  --- 12 message 32 [0 ffffffff 4 800] ------- [4:255 -1:255 32 0] 
r 0.634677575 _20_ MAC  --- 12 message 32 [0 ffffffff 4 800] ------- [4:255 -1:255 32 0] 
r 0.634677662 _17_ MAC  --- 12 message 32 [0 ffffffff 4 800] ------- [4:255 -1:255 32 0] 
r 0.634702378 _3_ RTR  --- 12 message 32 [0 ffffffff 4 800] ------- [4:255 -1:255 32 0] 
r 0.634702575 _20_ RTR  --- 12 message 32 [0 ffffffff 4 800] ------- [4:255 -1:255 32 0] 
r 0.634702662 _17_ RTR  --- 12 message 32 [0 ffffffff 4 800] ------- [4:255 -1:255 32 0] 
s 0.705319802 _19_ RTR  --- 13 message 32 [0 0 0 0] ------- [19:255 -1:255 32 0] 
s 0.705694802 _19_ MAC  --- 13 message 90 [0 ffffffff 13 800] ------- [19:255 -1:255 32 0] 
r 0.706415288 _11_ MAC  --- 13 message 32 [0 ffffffff 13 800] ------- [19:255 -1:255 32 0] 
r 0.706415367 _24_ MAC  --- 13 message 32 [0 ffffffff 13 800] ------- [19:255 -1:255 32 0] 
r 0.706415371 _23_ MAC  --- 13 message 32 [0 ffffffff 13 800] ------- [19:255 -1:255 32 0] 
r 0.706415371 _10_ MAC  --- 13 message 32 [0 ffffffff 13 800] ------- [19:255 -1:255 32 0] 
r 0.706415432 _6_ MAC  --- 13 message 32 [0 ffffffff 13 800] ------- [19:255 -1:255 32 0] 
r 0.706415570 _13_ MAC  --- 13 message 32 [0 ffffffff 13 800] ------- [19:255 -1:255 32 0] 
r 0.706415600 _18_ MAC  --- 13 message 32 [0 ffffffff 13 800] ------- [19:255 -1:255 32 0] 
r 0.706415622 _15_ MAC  --- 13 message 32 [0 ffffffff 13 800] ------- [19:255 -1:255 32 0] 
r 0.706440288 _11_ RTR  --- 13 message 32 [0 ffffffff 13 800] ------- [19:255 -1:255 32 0] 
r 0.706440367 _24_ RTR  --- 13 message 32 [0 ffffffff 13 800] ------- [19:255 -1:255 32 0] 
r 0.706440371 _23_ RTR  --- 13 message 32 [0 ffffffff 13 800] ------- [19:255 -1:255 32 0] 
r 0.706440371 _10_ RTR  --- 13 message 32 [0 ffffffff 13 800] ------- [19:255 -1:255 32 0] 
r 0.706440432 _6_ RTR  --- 13 message 32 [0 ffffffff 13 800] ------- [19:255 -1:255 32 0] 
r 0.706440570 _13_ RTR  --- 13 message 32 [0 ffffffff 13 800] ------- [19:255 -1:255 32 0] 
r 0.706440600 _18_ RTR  --- 13 message 32 [0 ffffffff 13 800] ------- [19:255 -1:255 32 0] 
r 0.706440622 _15_ RTR  --- 13 message 32 [0 ffffffff 13 800] ------- [19:255 -1:255 32 0] 
s 0.822832582 _21_ RTR  --- 14 message 32 [0 0 0 0] ------- [21:255 -1:255 32 0] 
s 0.823487582 _21_ MAC  --- 14 message 90 [0 ffffffff 15 800] ------- [21:255 -1:255 32 0] 
r 0.824207901 _0_ MAC  --- 14 message 32 [0 ffffffff 15 800] ------- [21:255 -1:255 32 0] 
r 0.824208282 _9_ MAC  --- 14 message 32 [0 ffffffff 15 800] ------- [21:255 -1:255 32 0] 
r 0.824232901 _0_ RTR  --- 14 message 32 [0 ffffffff 15 800] ------- [21:255 -1:255 32 0] 
r 0.824233282 _9_ RTR  --- 14 message 32 [0 ffffffff 15 800] ------- [21:255 -1:255 32 0] 
s 0.850635617 _15_ RTR  --- 15 message 32 [0 0 0 0] ------- [15:255 -1:255 32 0] 
s 0.851150617 _15_ MAC  --- 15 message 90 [0 ffffffff f 800] ------- [15:255 -1:255 32 0] 
r 0.851870956 _24_ MAC  --- 15 message 32 [0 ffffffff f 800] ------- [15:255 -1:255 32 0] 
r 0.851870978 _28_ MAC  --- 15 message 32 [0 ffffffff f 800] ------- [15:255 -1:255 32 0] 
r 0.851871020 _7_ MAC  --- 15 message 32 [0 ffffffff f 800] ------- [15:255 -1:255 32 0] 
r 0.851871079 _26_ MAC  --- 15 message 32 [0 ffffffff f 800] ------- [15:255 -1:255 32 0] 
r 0.851871117 _12_ MAC  --- 15 message 32 [0 ffffffff f 800] ------- [15:255 -1:255 32 0] 
r 0.851871158 _18_ MAC  --- 15 message 32 [0 ffffffff f 800] ------- [15:255 -1:255 32 0] 
r 0.851871276 _9_ MAC  --- 15 message 32 [0 ffffffff f 800] ------- [15:255 -1:255 32 0] 
r 0.851871282 _13_ MAC  --- 15 message 32 [0 ffffffff f 800] ------- [15:255 -1:255 32 0] 
r 0.851871437 _19_ MAC  --- 15 message 32 [0 ffffffff f 800] ------- [15:255 -1:255 32 0] 
r 0.851895956 _24_ RTR  --- 15 message 32 [0 ffffffff f 800] ------- [15:255 -1:255 32 0] 
r 0.851895978 _28_ RTR  --- 15 message 32 [0 ffffffff f 800] ------- [15:255 -1:255 32 0] 
r 0.851896020 _7_ RTR  --- 15 message 32 [0 ffffffff f 800] ------- [15:255 -1:255 32 0] 
r 0.851896079 _26_ RTR  --- 15 message 32 [0 ffffffff f 800] ------- [15:255 -1:255 32 0] 
r 0.851896117 _12_ RTR  --- 15 message 32 [0 ffffffff f 800] ------- [15:255 -1:255 32 0] 
r 0.851896158 _18_ RTR  --- 15 message 32 [0 ffffffff f 800] ------- [15:255 -1:255 32 0] 
r 0.851896276 _9_ RTR  --- 15 message 32 [0 ffffffff f 800] ------- [15:255 -1:255 32 0] 
r 0.851896282 _13_ RTR  --- 15 message 32 [0 ffffffff f 800] ------- [15:255 -1:255 32 0] 
r 0.851896437 _19_ RTR  --- 15 message 32 [0 ffffffff f 800] ------- [15:255 -1:255 32 0] 
s 0.885999237 _2_ RTR  --- 16 message 32 [0 0 0 0] ------- [2:255 -1:255 32 0] 
s 0.886294237 _2_ MAC  --- 16 message 90 [0 ffffffff 2 800] ------- [2:255 -1:255 32 0] 
r 0.887014477 _27_ MAC  --- 16 message 32 [0 ffffffff 2 800] ------- [2:255 -1:255 32 0] 
r 0.887014575 _8_ MAC  --- 16 message 32 [0 ffffffff 2 800] ------- [2:255 -1:255 32 0] 
r 0.887039477 _27_ RTR  --- 16 message 32 [0 ffffffff 2 800] ------- [2:255 -1:255 32 0] 
r 0.887039575 _8_ RTR  --- 16 message 32 [0 ffffffff 2 800] ------- [2:255 -1:255 32 0] 
s 0.941044448 _23_ RTR  --- 17 message 32 [0 0 0 0] ------- [23:255 -1:255 32 0] 
s 0.941439448 _23_ MAC  --- 17 message 90 [0 ffffffff 17 800] ------- [23:255 -1:255 32 0] 
r 0.942159972 _25_ MAC  --- 17 message 32 [0 ffffffff 17 800] ------- [23:255 -1:255 32 0] 
r 0.942160017 _19_ MAC  --- 17 message 32 [0 ffffffff 17 800] ------- [23:255 -1:255 32 0] 
r 0.942160133 _22_ MAC  --- 17 message 32 [0 ffffffff 17 800] ------- [23:255 -1:255 32 0] 
r 0.942160212 _6_ MAC  --- 17 message 32 [0 ffffffff 17 800] ------- [23:255 -1:255 32 0] 
r 0.942184972 _25_ RTR  --- 17 message 32 [0 ffffffff 17 800] ------- [23:255 -1:255 32 0] 
r 0.942185017 _19_ RTR  --- 17 message 32 [0 ffffffff 17 800] ------- [23:255 -1:255 32 0] 
r 0.942185133 _22_ RTR  --- 17 message 32 [0 ffffffff 17 800] ------- [23:255 -1:255 32 0] 
r 0.942185212 _6_ RTR  --- 17 message 32 [0 ffffffff 17 800] ------- [23:255 -1:255 32 0] 
M 1.00000 0 (3385.00, 3955.00, 0.00), (3561.00, 3841.00), 10.00
s 1.000000000 _0_ AGT  --- 18 tcp 40 [0 0 0 0] ------- [0:0 29:0 32 0] [0 -1] 0 0
r 1.000000000 _0_ RTR  --- 18 tcp 40 [0 0 0 0] ------- [0:0 29:0 32 0] [0 -1] 0 0
s 1.044849944 _22_ RTR  --- 19 message 32 [0 0 0 0] ------- [22:255 -1:255 32 0] 
s 1.044944944 _22_ MAC  --- 19 message 90 [0 ffffffff 16 800] ------- [22:255 -1:255 32 0] 
r 1.045665630 _23_ MAC  --- 19 message 32 [0 ffffffff 16 800] ------- [22:255 -1:255 32 0] 
r 1.045665675 _12_ MAC  --- 19 message 32 [0 ffffffff 16 800] ------- [22:255 -1:255 32 0] 
r 1.045665768 _24_ MAC  --- 19 message 32 [0 ffffffff 16 800] ------- [22:255 -1:255 32 0] 
r 1.045690630 _23_ RTR  --- 19 message 32 [0 ffffffff 16 800] ------- [22:255 -1:255 32 0] 
r 1.045690675 _12_ RTR  --- 19 message 32 [0 ffffffff 16 800] ------- [22:255 -1:255 32 0] 
r 1.045690768 _24_ RTR  --- 19 message 32 [0 ffffffff 16 800] ------- [22:255 -1:255 32 0] 
s 1.280295290 _12_ RTR  --- 21 message 32 [0 0 0 0] ------- [12:255 -1:255 32 0] 
s 1.280970290 _12_ MAC  --- 21 message 90 [0 ffffffff c 800] ------- [12:255 -1:255 32 0] 
r 1.281690642 _24_ MAC  --- 21 message 32 [0 ffffffff c 800] ------- [12:255 -1:255 32 0] 
r 1.281690790 _15_ MAC  --- 21 message 32 [0 ffffffff c 800] ------- [12:255 -1:255 32 0] 
r 1.281690921 _9_ MAC  --- 21 message 32 [0 ffffffff c 800] ------- [12:255 -1:255 32 0] 
r 1.281690981 _27_ MAC  --- 21 message 32 [0 ffffffff c 800] ------- [12:255 -1:255 32 0] 
r 1.281691021 _22_ MAC  --- 21 message 32 [0 ffffffff c 800] ------- [12:255 -1:255 32 0] 
r 1.281691071 _26_ MAC  --- 21 message 32 [0 ffffffff c 800] ------- [12:255 -1:255 32 0] 
r 1.281691120 _28_ MAC  --- 21 message 32 [0 ffffffff c 800] ------- [12:255 -1:255 32 0] 
r 1.281715642 _24_ RTR  --- 21 message 32 [0 ffffffff c 800] ------- [12:255 -1:255 32 0] 
r 1.281715790 _15_ RTR  --- 21 message 32 [0 ffffffff c 800] ------- [12:255 -1:255 32 0] 
r 1.281715921 _9_ RTR  --- 21 message 32 [0 ffffffff c 800] ------- [12:255 -1:255 32 0] 
r 1.281715981 _27_ RTR  --- 21 message 32 [0 ffffffff c 800] ------- [12:255 -1:255 32 0] 
r 1.281716021 _22_ RTR  --- 21 message 32 [0 ffffffff c 800] ------- [12:255 -1:255 32 0] 
r 1.281716071 _26_ RTR  --- 21 message 32 [0 ffffffff c 800] ------- [12:255 -1:255 32 0] 
r 1.281716120 _28_ RTR  --- 21 message 32 [0 ffffffff c 800] ------- [12:255 -1:255 32 0] 
s 1.282242901 _7_ RTR  --- 20 message 32 [0 0 0 0] ------- [7:255 -1:255 32 0] 
s 1.282337901 _7_ MAC  --- 20 message 90 [0 ffffffff 7 800] ------- [7:255 -1:255 32 0] 
r 1.283058060 _28_ MAC  --- 20 message 32 [0 ffffffff 7 800] ------- [7:255 -1:255 32 0] 
r 1.283058260 _18_ MAC  --- 20 message 32 [0 ffffffff 7 800] ------- [7:255 -1:255 32 0] 
r 1.283058304 _15_ MAC  --- 20 message 32 [0 ffffffff 7 800] ------- [7:255 -1:255 32 0] 
r 1.283058362 _26_ MAC  --- 20 message 32 [0 ffffffff 7 800] ------- [7:255 -1:255 32 0] 
r 1.283058402 _13_ MAC  --- 20 message 32 [0 ffffffff 7 800] ------- [7:255 -1:255 32 0] 
r 1.283058435 _3_ MAC  --- 20 message 32 [0 ffffffff 7 800] ------- [7:255 -1:255 32 0] 
r 1.283058605 _24_ MAC  --- 20 message 32 [0 ffffffff 7 800] ------- [7:255 -1:255 32 0] 
r 1.283058689 _17_ MAC  --- 20 message 32 [0 ffffffff 7 800] ------- [7:255 -1:255 32 0] 
r 1.283058730 _10_ MAC  --- 20 message 32 [0 ffffffff 7 800] ------- [7:255 -1:255 32 0] 
r 1.283083060 _28_ RTR  --- 20 message 32 [0 ffffffff 7 800] ------- [7:255 -1:255 32 0] 
r 1.283083260 _18_ RTR  --- 20 message 32 [0 ffffffff 7 800] ------- [7:255 -1:255 32 0] 
r 1.283083304 _15_ RTR  --- 20 message 32 [0 ffffffff 7 800] ------- [7:255 -1:255 32 0] 
r 1.283083362 _26_ RTR  --- 20 message 32 [0 ffffffff 7 800] ------- [7:255 -1:255 32 0] 
r 1.283083402 _13_ RTR  --- 20 message 32 [0 ffffffff 7 800] ------- [7:255 -1:255 32 0] 
r 1.283083435 _3_ RTR  --- 20 message 32 [0 ffffffff 7 800] ------- [7:255 -1:255 32 0] 
r 1.283083605 _24_ RTR  --- 20 message 32 [0 ffffffff 7 800] ------- [7:255 -1:255 32 0] 
r 1.283083689 _17_ RTR  --- 20 message 32 [0 ffffffff 7 800] ------- [7:255 -1:255 32 0] 
r 1.283083730 _10_ RTR  --- 20 message 32 [0 ffffffff 7 800] ------- [7:255 -1:255 32 0] 
s 1.386755185 _24_ RTR  --- 22 message 32 [0 0 0 0] ------- [24:255 -1:255 32 0] 
s 1.386850185 _24_ MAC  --- 22 message 90 [0 ffffffff 18 800] ------- [24:255 -1:255 32 0] 
r 1.387570524 _15_ MAC  --- 22 message 32 [0 ffffffff 18 800] ------- [24:255 -1:255 32 0] 
r 1.387570537 _12_ MAC  --- 22 message 32 [0 ffffffff 18 800] ------- [24:255 -1:255 32 0] 
r 1.387570751 _19_ MAC  --- 22 message 32 [0 ffffffff 18 800] ------- [24:255 -1:255 32 0] 
r 1.387570877 _18_ MAC  --- 22 message 32 [0 ffffffff 18 800] ------- [24:255 -1:255 32 0] 
r 1.387570880 _28_ MAC  --- 22 message 32 [0 ffffffff 18 800] ------- [24:255 -1:255 32 0] 
r 1.387570889 _7_ MAC  --- 22 message 32 [0 ffffffff 18 800] ------- [24:255 -1:255 32 0] 
r 1.387570952 _13_ MAC  --- 22 message 32 [0 ffffffff 18 800] ------- [24:255 -1:255 32 0] 
r 1.387570965 _26_ MAC  --- 22 message 32 [0 ffffffff 18 800] ------- [24:255 -1:255 32 0] 
r 1.387571008 _22_ MAC  --- 22 message 32 [0 ffffffff 18 800] ------- [24:255 -1:255 32 0] 
r 1.387571016 _10_ MAC  --- 22 message 32 [0 ffffffff 18 800] ------- [24:255 -1:255 32 0] 
r 1.387595524 _15_ RTR  --- 22 message 32 [0 ffffffff 18 800] ------- [24:255 -1:255 32 0] 
r 1.387595537 _12_ RTR  --- 22 message 32 [0 ffffffff 18 800] ------- [24:255 -1:255 32 0] 
r 1.387595751 _19_ RTR  --- 22 message 32 [0 ffffffff 18 800] ------- [24:255 -1:255 32 0] 
r 1.387595877 _18_ RTR  --- 22 message 32 [0 ffffffff 18 800] ------- [24:255 -1:255 32 0] 
r 1.387595880 _28_ RTR  --- 22 message 32 [0 ffffffff 18 800] ------- [24:255 -1:255 32 0] 
r 1.387595889 _7_ RTR  --- 22 message 32 [0 ffffffff 18 800] ------- [24:255 -1:255 32 0] 
r 1.387595952 _13_ RTR  --- 22 message 32 [0 ffffffff 18 800] ------- [24:255 -1:255 32 0] 
r 1.387595965 _26_ RTR  --- 22 message 32 [0 ffffffff 18 800] ------- [24:255 -1:255 32 0] 
r 1.387596008 _22_ RTR  --- 22 message 32 [0 ffffffff 18 800] ------- [24:255 -1:255 32 0] 
r 1.387596016 _10_ RTR  --- 22 message 32 [0 ffffffff 18 800] ------- [24:255 -1:255 32 0] 
s 1.605667442 _3_ RTR  --- 23 message 32 [0 0 0 0] ------- [3:255 -1:255 32 0] 
s 1.606122442 _3_ MAC  --- 23 message 90 [0 ffffffff 3 800] ------- [3:255 -1:255 32 0] 
r 1.606842872 _4_ MAC  --- 23 message 32 [0 ffffffff 3 800] ------- [3:255 -1:255 32 0] 
r 1.606842976 _7_ MAC  --- 23 message 32 [0 ffffffff 3 800] ------- [3:255 -1:255 32 0] 
r 1.606842990 _18_ MAC  --- 23 message 32 [0 ffffffff 3 800] ------- [3:255 -1:255 32 0] 
r 1.606843027 _13_ MAC  --- 23 message 32 [0 ffffffff 3 800] ------- [3:255 -1:255 32 0] 
r 1.606843090 _17_ MAC  --- 23 message 32 [0 ffffffff 3 800] ------- [3:255 -1:255 32 0] 
r 1.606843097 _28_ MAC  --- 23 message 32 [0 ffffffff 3 800] ------- [3:255 -1:255 32 0] 
r 1.606867872 _4_ RTR  --- 23 message 32 [0 ffffffff 3 800] ------- [3:255 -1:255 32 0] 
r 1.606867976 _7_ RTR  --- 23 message 32 [0 ffffffff 3 800] ------- [3:255 -1:255 32 0] 
r 1.606867990 _18_ RTR  --- 23 message 32 [0 ffffffff 3 800] ------- [3:255 -1:255 32 0] 
r 1.606868027 _13_ RTR  --- 23 message 32 [0 ffffffff 3 800] ------- [3:255 -1:255 32 0] 
r 1.606868090 _17_ RTR  --- 23 message 32 [0 ffffffff 3 800] ------- [3:255 -1:255 32 0] 
r 1.606868097 _28_ RTR  --- 23 message 32 [0 ffffffff 3 800] ------- [3:255 -1:255 32 0] 
s 1.622564935 _18_ RTR  --- 24 message 32 [0 0 0 0] ------- [18:255 -1:255 32 0] 
s 1.623179935 _18_ MAC  --- 24 message 90 [0 ffffffff 12 800] ------- [18:255 -1:255 32 0] 
r 1.623900080 _13_ MAC  --- 24 message 32 [0 ffffffff 12 800] ------- [18:255 -1:255 32 0] 
r 1.623900295 _7_ MAC  --- 24 message 32 [0 ffffffff 12 800] ------- [18:255 -1:255 32 0] 
r 1.623900395 _17_ MAC  --- 24 message 32 [0 ffffffff 12 800] ------- [18:255 -1:255 32 0] 
r 1.623900411 _10_ MAC  --- 24 message 32 [0 ffffffff 12 800] ------- [18:255 -1:255 32 0] 
r 1.623900442 _28_ MAC  --- 24 message 32 [0 ffffffff 12 800] ------- [18:255 -1:255 32 0] 
r 1.623900476 _15_ MAC  --- 24 message 32 [0 ffffffff 12 800] ------- [18:255 -1:255 32 0] 
r 1.623900483 _3_ MAC  --- 24 message 32 [0 ffffffff 12 800] ------- [18:255 -1:255 32 0] 
r 1.623900627 _24_ MAC  --- 24 message 32 [0 ffffffff 12 800] ------- [18:255 -1:255 32 0] 
r 1.623900734 _19_ MAC  --- 24 message 32 [0 ffffffff 12 800] ------- [18:255 -1:255 32 0] 
r 1.623900735 _26_ MAC  --- 24 message 32 [0 ffffffff 12 800] ------- [18:255 -1:255 32 0] 
r 1.623900758 _11_ MAC  --- 24 message 32 [0 ffffffff 12 800] ------- [18:255 -1:255 32 0] 
r 1.623925080 _13_ RTR  --- 24 message 32 [0 ffffffff 12 800] ------- [18:255 -1:255 32 0] 
r 1.623925295 _7_ RTR  --- 24 message 32 [0 ffffffff 12 800] ------- [18:255 -1:255 32 0] 
r 1.623925395 _17_ RTR  --- 24 message 32 [0 ffffffff 12 800] ------- [18:255 -1:255 32 0] 
r 1.623925411 _10_ RTR  --- 24 message 32 [0 ffffffff 12 800] ------- [18:255 -1:255 32 0] 
r 1.623925442 _28_ RTR  --- 24 message 32 [0 ffffffff 12 800] ------- [18:255 -1:255 32 0] 
r 1.623925476 _15_ RTR  --- 24 message 32 [0 ffffffff 12 800] ------- [18:255 -1:255 32 0] 
r 1.623925483 _3_ RTR  --- 24 message 32 [0 ffffffff 12 800] ------- [18:255 -1:255 32 0] 
r 1.623925627 _24_ RTR  --- 24 message 32 [0 ffffffff 12 800] ------- [18:255 -1:255 32 0] 
r 1.623925734 _19_ RTR  --- 24 message 32 [0 ffffffff 12 800] ------- [18:255 -1:255 32 0] 
r 1.623925735 _26_ RTR  --- 24 message 32 [0 ffffffff 12 800] ------- [18:255 -1:255 32 0] 
r 1.623925758 _11_ RTR  --- 24 message 32 [0 ffffffff 12 800] ------- [18:255 -1:255 32 0] 
s 1.634718951 _5_ RTR  --- 25 message 32 [0 0 0 0] ------- [5:255 -1:255 32 0] 