n -t * -s 0  -x 3385 -y 3955 -Z 0 -z 20  -v circle -c black
n -t * -s 1  -x 4077 -y 3400 -Z 0 -z 20  -v circle -c black
n -t * -s 2  -x 3175 -y 3804 -Z 0 -z 20  -v circle -c black
n -t * -s 3  -x 3727 -y 3468 -Z 0 -z 20  -v circle -c black
n -t * -s 4  -x 3824 -y 3383 -Z 0 -z 20  -v circle -c black
n -t * -s 5  -x 3884 -y 3777 -Z 0 -z 20  -v circle -c black
n -t * -s 6  -x 3370 -y 3142 -Z 0 -z 20  -v circle -c black
n -t * -s 7  -x 3581 -y 3534 -Z 0 -z 20  -v circle -c black
n -t * -s 8  -x 3153 -y 3903 -Z 0 -z 20  -v circle -c black
n -t * -s 9  -x 3423 -y 3743 -Z 0 -z 20  -v circle -c black
n -t * -s 10  -x 3516 -y 3294 -Z 0 -z 20  -v circle -c black
n -t * -s 11  -x 3440 -y 3216 -Z 0 -z 20  -v circle -c black
n -t * -s 12  -x 3316 -y 3587 -Z 0 -z 20  -v circle -c black
n -t * -s 13  -x 3573 -y 3384 -Z 0 -z 20  -v circle -c black
n -t * -s 14  -x 4058 -y 3644 -Z 0 -z 20  -v circle -c black
n -t * -s 15  -x 3461 -y 3549 -Z 0 -z 20  -v circle -c black
n -t * -s 16  -x 3244 -y 4103 -Z 0 -z 20  -v circle -c black
n -t * -s 17  -x 3626 -y 3302 -Z 0 -z 20  -v circle -c black
n -t * -s 18  -x 3568 -y 3427 -Z 0 -z 20  -v circle -c black
n -t * -s 19  -x 3349 -y 3330 -Z 0 -z 20  -v circle -c black
n -t * -s 20  -x 3843 -y 3196 -Z 0 -z 20  -v circle -c black
n -t * -s 21  -x 3480 -y 3945 -Z 0 -z 20  -v circle -c black
n -t * -s 22  -x 3127 -y 3476 -Z 0 -z 20  -v circle -c black
n -t * -s 23  -x 3186 -y 3279 -Z 0 -z 20  -v circle -c black
n -t * -s 24  -x 3373 -y 3498 -Z 0 -z 20  -v circle -c black
n -t * -s 25  -x 3175 -y 3122 -Z 0 -z 20  -v circle -c black
n -t * -s 26  -x 3537 -y 3665 -Z 0 -z 20  -v circle -c black
n -t * -s 27  -x 3243 -y 3781 -Z 0 -z 20  -v circle -c black
n -t * -s 28  -x 3565 -y 3579 -Z 0 -z 20  -v circle -c black
n -t * -s 29  -x 3292 -y 3043 -Z 0 -z 20  -v circle -c black
V -t * -v 1.0a5 -a 0
W -t * -x 8254 -y 3941
A -t * -n 1 -p 0 -o 0x7fffffff -c 30 -a 1
A -t * -h 1 -m 1073741823 -s 0
+ -t 0.035182811 -s 0 -d -1 -p message -e 32 -c 2 -a 0 -i 0 -k RTR 
- -t 0.035182811 -s 0 -d -1 -p message -e 32 -c 2 -a 0 -i 0 -k RTR
h -t 0.035182811 -s 0 -d -1 -p message -e 32 -c 2 -a 0 -i 0 -k RTR
+ -t 0.035397811 -s 0 -d -1 -p message -e 90 -c 2 -a 0 -i 0 -k MAC 
- -t 0.035397811 -s 0 -d -1 -p message -e 90 -c 2 -a 0 -i 0 -k MAC
h -t 0.035397811 -s 0 -d -1 -p message -e 90 -c 2 -a 0 -i 0 -k MAC
r -t 0.036118129 -s 21 -d -1 -p message -e 32 -c 2 -a 0 -i 0 -k MAC
r -t 0.036118492 -s 16 -d -1 -p message -e 32 -c 2 -a 0 -i 0 -k MAC
r -t 0.036118529 -s 9 -d -1 -p message -e 32 -c 2 -a 0 -i 0 -k MAC
r -t 0.036118559 -s 27 -d -1 -p message -e 32 -c 2 -a 0 -i 0 -k MAC
r -t 0.036118603 -s 8 -d -1 -p message -e 32 -c 2 -a 0 -i 0 -k MAC
r -t 0.036143129 -s 21 -d -1 -p message -e 32 -c 2 -a 0 -i 0 -k RTR
r -t 0.036143492 -s 16 -d -1 -p message -e 32 -c 2 -a 0 -i 0 -k RTR
r -t 0.036143529 -s 9 -d -1 -p message -e 32 -c 2 -a 0 -i 0 -k RTR
r -t 0.036143559 -s 27 -d -1 -p message -e 32 -c 2 -a 0 -i 0 -k RTR
r -t 0.036143603 -s 8 -d -1 -p message -e 32 -c 2 -a 0 -i 0 -k RTR
+ -t 0.086681100 -s 11 -d -1 -p message -e 32 -c 2 -a 0 -i 1 -k RTR 
- -t 0.086681100 -s 11 -d -1 -p message -e 32 -c 2 -a 0 -i 1 -k RTR
h -t 0.086681100 -s 11 -d -1 -p message -e 32 -c 2 -a 0 -i 1 -k RTR
+ -t 0.086856100 -s 11 -d -1 -p message -e 90 -c 2 -a 0 -i 1 -k MAC 
- -t 0.086856100 -s 11 -d -1 -p message -e 90 -c 2 -a 0 -i 1 -k MAC
h -t 0.086856100 -s 11 -d -1 -p message -e 90 -c 2 -a 0 -i 1 -k MAC
r -t 0.087576440 -s 6 -d -1 -p message -e 32 -c 2 -a 0 -i 1 -k MAC
r -t 0.087576463 -s 10 -d -1 -p message -e 32 -c 2 -a 0 -i 1 -k MAC
r -t 0.087576586 -s 19 -d -1 -p message -e 32 -c 2 -a 0 -i 1 -k MAC
r -t 0.087576783 -s 17 -d -1 -p message -e 32 -c 2 -a 0 -i 1 -k MAC
r -t 0.087576814 -s 13 -d -1 -p message -e 32 -c 2 -a 0 -i 1 -k MAC
r -t 0.087576859 -s 29 -d -1 -p message -e 32 -c 2 -a 0 -i 1 -k MAC
r -t 0.087576923 -s 18 -d -1 -p message -e 32 -c 2 -a 0 -i 1 -k MAC
r -t 0.087601440 -s 6 -d -1 -p message -e 32 -c 2 -a 0 -i 1 -k RTR
r -t 0.087601463 -s 10 -d -1 -p message -e 32 -c 2 -a 0 -i 1 -k RTR
r -t 0.087601586 -s 19 -d -1 -p message -e 32 -c 2 -a 0 -i 1 -k RTR
r -t 0.087601783 -s 17 -d -1 -p message -e 32 -c 2 -a 0 -i 1 -k RTR
r -t 0.087601814 -s 13 -d -1 -p message -e 32 -c 2 -a 0 -i 1 -k RTR
r -t 0.087601859 -s 29 -d -1 -p message -e 32 -c 2 -a 0 -i 1 -k RTR
r -t 0.087601923 -s 18 -d -1 -p message -e 32 -c 2 -a 0 -i 1 -k RTR
+ -t 0.185707992 -s 1 -d -1 -p message -e 32 -c 2 -a 0 -i 2 -k RTR 
- -t 0.185707992 -s 1 -d -1 -p message -e 32 -c 2 -a 0 -i 2 -k RTR
h -t 0.185707992 -s 1 -d -1 -p message -e 32 -c 2 -a 0 -i 2 -k RTR
+ -t 0.186362992 -s 1 -d -1 -p message -e 90 -c 2 -a 0 -i 2 -k MAC 
- -t 0.186362992 -s 1 -d -1 -p message -e 90 -c 2 -a 0 -i 2 -k MAC
h -t 0.186362992 -s 1 -d -1 -p message -e 90 -c 2 -a 0 -i 2 -k MAC
r -t 0.187083808 -s 14 -d -1 -p message -e 32 -c 2 -a 0 -i 2 -k MAC
r -t 0.187108808 -s 14 -d -1 -p message -e 32 -c 2 -a 0 -i 2 -k RTR
+ -t 0.188385792 -s 17 -d -1 -p message -e 32 -c 2 -a 0 -i 3 -k RTR 
- -t 0.188385792 -s 17 -d -1 -p message -e 32 -c 2 -a 0 -i 3 -k RTR
h -t 0.188385792 -s 17 -d -1 -p message -e 32 -c 2 -a 0 -i 3 -k RTR
+ -t 0.188960792 -s 17 -d -1 -p message -e 90 -c 2 -a 0 -i 3 -k MAC 
- -t 0.188960792 -s 17 -d -1 -p message -e 90 -c 2 -a 0 -i 3 -k MAC
h -t 0.188960792 -s 17 -d -1 -p message -e 90 -c 2 -a 0 -i 3 -k MAC
r -t 0.189681118 -s 13 -d -1 -p message -e 32 -c 2 -a 0 -i 3 -k MAC
r -t 0.189681160 -s 10 -d -1 -p message -e 32 -c 2 -a 0 -i 3 -k MAC
r -t 0.189681252 -s 18 -d -1 -p message -e 32 -c 2 -a 0 -i 3 -k MAC
r -t 0.189681440 -s 3 -d -1 -p message -e 32 -c 2 -a 0 -i 3 -k MAC
r -t 0.189681476 -s 11 -d -1 -p message -e 32 -c 2 -a 0 -i 3 -k MAC
r -t 0.189681506 -s 4 -d -1 -p message -e 32 -c 2 -a 0 -i 3 -k MAC
r -t 0.189681580 -s 7 -d -1 -p message -e 32 -c 2 -a 0 -i 3 -k MAC
r -t 0.189681598 -s 20 -d -1 -p message -e 32 -c 2 -a 0 -i 3 -k MAC
r -t 0.189706118 -s 13 -d -1 -p message -e 32 -c 2 -a 0 -i 3 -k RTR
r -t 0.189706160 -s 10 -d -1 -p message -e 32 -c 2 -a 0 -i 3 -k RTR
r -t 0.189706252 -s 18 -d -1 -p message -e 32 -c 2 -a 0 -i 3 -k RTR
r -t 0.189706440 -s 3 -d -1 -p message -e 32 -c 2 -a 0 -i 3 -k RTR
r -t 0.189706476 -s 11 -d -1 -p message -e 32 -c 2 -a 0 -i 3 -k RTR
r -t 0.189706506 -s 4 -d -1 -p message -e 32 -c 2 -a 0 -i 3 -k RTR
r -t 0.189706580 -s 7 -d -1 -p message -e 32 -c 2 -a 0 -i 3 -k RTR
r -t 0.189706598 -s 20 -d -1 -p message -e 32 -c 2 -a 0 -i 3 -k RTR
+ -t 0.234302736 -s 13 -d -1 -p message -e 32 -c 2 -a 0 -i 4 -k RTR 
- -t 0.234302736 -s 13 -d -1 -p message -e 32 -c 2 -a 0 -i 4 -k RTR
h -t 0.234302736 -s 13 -d -1 -p message -e 32 -c 2 -a 0 -i 4 -k RTR
+ -t 0.234857736 -s 13 -d -1 -p message -e 90 -c 2 -a 0 -i 4 -k MAC 
- -t 0.234857736 -s 13 -d -1 -p message -e 90 -c 2 -a 0 -i 4 -k MAC
h -t 0.234857736 -s 13 -d -1 -p message -e 90 -c 2 -a 0 -i 4 -k MAC
r -t 0.235577880 -s 18 -d -1 -p message -e 32 -c 2 -a 0 -i 4 -k MAC
r -t 0.235578062 -s 17 -d -1 -p message -e 32 -c 2 -a 0 -i 4 -k MAC
r -t 0.235578091 -s 10 -d -1 -p message -e 32 -c 2 -a 0 -i 4 -k MAC
r -t 0.235578237 -s 7 -d -1 -p message -e 32 -c 2 -a 0 -i 4 -k MAC
r -t 0.235578321 -s 3 -d -1 -p message -e 32 -c 2 -a 0 -i 4 -k MAC
r -t 0.235578387 -s 28 -d -1 -p message -e 32 -c 2 -a 0 -i 4 -k MAC
r -t 0.235578401 -s 15 -d -1 -p message -e 32 -c 2 -a 0 -i 4 -k MAC
r -t 0.235578450 -s 11 -d -1 -p message -e 32 -c 2 -a 0 -i 4 -k MAC
r -t 0.235578503 -s 24 -d -1 -p message -e 32 -c 2 -a 0 -i 4 -k MAC
r -t 0.235578504 -s 19 -d -1 -p message -e 32 -c 2 -a 0 -i 4 -k MAC
r -t 0.235602880 -s 18 -d -1 -p message -e 32 -c 2 -a 0 -i 4 -k RTR
r -t 0.235603062 -s 17 -d -1 -p message -e 32 -c 2 -a 0 -i 4 -k RTR
r -t 0.235603091 -s 10 -d -1 -p message -e 32 -c 2 -a 0 -i 4 -k RTR
r -t 0.235603237 -s 7 -d -1 -p message -e 32 -c 2 -a 0 -i 4 -k RTR
r -t 0.235603321 -s 3 -d -1 -p message -e 32 -c 2 -a 0 -i 4 -k RTR
r -t 0.235603387 -s 28 -d -1 -p message -e 32 -c 2 -a 0 -i 4 -k RTR
r -t 0.235603401 -s 15 -d -1 -p message -e 32 -c 2 -a 0 -i 4 -k RTR
r -t 0.235603450 -s 11 -d -1 -p message -e 32 -c 2 -a 0 -i 4 -k RTR
r -t 0.235603503 -s 24 -d -1 -p message -e 32 -c 2 -a 0 -i 4 -k RTR
r -t 0.235603504 -s 19 -d -1 -p message -e 32 -c 2 -a 0 -i 4 -k RTR
+ -t 0.337057370 -s 10 -d -1 -p message -e 32 -c 2 -a 0 -i 5 -k RTR 
- -t 0.337057370 -s 10 -d -1 -p message -e 32 -c 2 -a 0 -i 5 -k RTR
h -t 0.337057370 -s 10 -d -1 -p message -e 32 -c 2 -a 0 -i 5 -k RTR
+ -t 0.337292370 -s 10 -d -1 -p message -e 90 -c 2 -a 0 -i 5 -k MAC 
- -t 0.337292370 -s 10 -d -1 -p message -e 90 -c 2 -a 0 -i 5 -k MAC
h -t 0.337292370 -s 10 -d -1 -p message -e 90 -c 2 -a 0 -i 5 -k MAC
r -t 0.338012725 -s 13 -d -1 -p message -e 32 -c 2 -a 0 -i 5 -k MAC
r -t 0.338012733 -s 11 -d -1 -p message -e 32 -c 2 -a 0 -i 5 -k MAC
r -t 0.338012738 -s 17 -d -1 -p message -e 32 -c 2 -a 0 -i 5 -k MAC
r -t 0.338012846 -s 18 -d -1 -p message -e 32 -c 2 -a 0 -i 5 -k MAC
r -t 0.338012939 -s 19 -d -1 -p message -e 32 -c 2 -a 0 -i 5 -k MAC
r -t 0.338013072 -s 6 -d -1 -p message -e 32 -c 2 -a 0 -i 5 -k MAC
r -t 0.338013199 -s 7 -d -1 -p message -e 32 -c 2 -a 0 -i 5 -k MAC
r -t 0.338013200 -s 24 -d -1 -p message -e 32 -c 2 -a 0 -i 5 -k MAC
r -t 0.338037725 -s 13 -d -1 -p message -e 32 -c 2 -a 0 -i 5 -k RTR
r -t 0.338037733 -s 11 -d -1 -p message -e 32 -c 2 -a 0 -i 5 -k RTR
r -t 0.338037738 -s 17 -d -1 -p message -e 32 -c 2 -a 0 -i 5 -k RTR
r -t 0.338037846 -s 18 -d -1 -p message -e 32 -c 2 -a 0 -i 5 -k RTR
r -t 0.338037939 -s 19 -d -1 -p message -e 32 -c 2 -a 0 -i 5 -k RTR
r -t 0.338038072 -s 6 -d -1 -p message -e 32 -c 2 -a 0 -i 5 -k RTR
r -t 0.338038199 -s 7 -d -1 -p message -e 32 -c 2 -a 0 -i 5 -k RTR
r -t 0.338038200 -s 24 -d -1 -p message -e 32 -c 2 -a 0 -i 5 -k RTR
+ -t 0.349886082 -s 16 -d -1 -p message -e 32 -c 2 -a 0 -i 6 -k RTR 
- -t 0.349886082 -s 16 -d -1 -p message -e 32 -c 2 -a 0 -i 6 -k RTR
h -t 0.349886082 -s 16 -d -1 -p message -e 32 -c 2 -a 0 -i 6 -k RTR
+ -t 0.349961082 -s 16 -d -1 -p message -e 90 -c 2 -a 0 -i 6 -k MAC 
- -t 0.349961082 -s 16 -d -1 -p message -e 90 -c 2 -a 0 -i 6 -k MAC
h -t 0.349961082 -s 16 -d -1 -p message -e 90 -c 2 -a 0 -i 6 -k MAC
r -t 0.350681764 -s 0 -d -1 -p message -e 32 -c 2 -a 0 -i 6 -k MAC
r -t 0.350681815 -s 8 -d -1 -p message -e 32 -c 2 -a 0 -i 6 -k MAC
r -t 0.350706764 -s 0 -d -1 -p message -e 32 -c 2 -a 0 -i 6 -k RTR
r -t 0.350706815 -s 8 -d -1 -p message -e 32 -c 2 -a 0 -i 6 -k RTR
+ -t 0.443787081 -s 27 -d -1 -p message -e 32 -c 2 -a 0 -i 7 -k RTR 
- -t 0.443787081 -s 27 -d -1 -p message -e 32 -c 2 -a 0 -i 7 -k RTR
h -t 0.443787081 -s 27 -d -1 -p message -e 32 -c 2 -a 0 -i 7 -k RTR
+ -t 0.443882081 -s 27 -d -1 -p message -e 90 -c 2 -a 0 -i 7 -k MAC 
- -t 0.443882081 -s 27 -d -1 -p message -e 90 -c 2 -a 0 -i 7 -k MAC
h -t 0.443882081 -s 27 -d -1 -p message -e 90 -c 2 -a 0 -i 7 -k MAC
r -t 0.444602320 -s 2 -d -1 -p message -e 32 -c 2 -a 0 -i 7 -k MAC
r -t 0.444602586 -s 8 -d -1 -p message -e 32 -c 2 -a 0 -i 7 -k MAC
r -t 0.444602694 -s 9 -d -1 -p message -e 32 -c 2 -a 0 -i 7 -k MAC
r -t 0.444602772 -s 12 -d -1 -p message -e 32 -c 2 -a 0 -i 7 -k MAC
r -t 0.444602829 -s 0 -d -1 -p message -e 32 -c 2 -a 0 -i 7 -k MAC
r -t 0.444627320 -s 2 -d -1 -p message -e 32 -c 2 -a 0 -i 7 -k RTR
r -t 0.444627586 -s 8 -d -1 -p message -e 32 -c 2 -a 0 -i 7 -k RTR
r -t 0.444627694 -s 9 -d -1 -p message -e 32 -c 2 -a 0 -i 7 -k RTR
r -t 0.444627772 -s 12 -d -1 -p message -e 32 -c 2 -a 0 -i 7 -k RTR
r -t 0.444627829 -s 0 -d -1 -p message -e 32 -c 2 -a 0 -i 7 -k RTR
+ -t 0.470990782 -s 6 -d -1 -p message -e 32 -c 2 -a 0 -i 8 -k RTR 
- -t 0.470990782 -s 6 -d -1 -p message -e 32 -c 2 -a 0 -i 8 -k RTR
h -t 0.470990782 -s 6 -d -1 -p message -e 32 -c 2 -a 0 -i 8 -k RTR
+ -t 0.471365782 -s 6 -d -1 -p message -e 90 -c 2 -a 0 -i 8 -k MAC 
- -t 0.471365782 -s 6 -d -1 -p message -e 90 -c 2 -a 0 -i 8 -k MAC
h -t 0.471365782 -s 6 -d -1 -p message -e 90 -c 2 -a 0 -i 8 -k MAC
r -t 0.472086122 -s 11 -d -1 -p message -e 32 -c 2 -a 0 -i 8 -k MAC
r -t 0.472086202 -s 29 -d -1 -p message -e 32 -c 2 -a 0 -i 8 -k MAC
r -t 0.472086413 -s 19 -d -1 -p message -e 32 -c 2 -a 0 -i 8 -k MAC
r -t 0.472086436 -s 25 -d -1 -p message -e 32 -c 2 -a 0 -i 8 -k MAC
r -t 0.472086485 -s 10 -d -1 -p message -e 32 -c 2 -a 0 -i 8 -k MAC
r -t 0.472086547 -s 23 -d -1 -p message -e 32 -c 2 -a 0 -i 8 -k MAC
r -t 0.472111122 -s 11 -d -1 -p message -e 32 -c 2 -a 0 -i 8 -k RTR
r -t 0.472111202 -s 29 -d -1 -p message -e 32 -c 2 -a 0 -i 8 -k RTR
r -t 0.472111413 -s 19 -d -1 -p message -e 32 -c 2 -a 0 -i 8 -k RTR
r -t 0.472111436 -s 25 -d -1 -p message -e 32 -c 2 -a 0 -i 8 -k RTR
r -t 0.472111485 -s 10 -d -1 -p message -e 32 -c 2 -a 0 -i 8 -k RTR
r -t 0.472111547 -s 23 -d -1 -p message -e 32 -c 2 -a 0 -i 8 -k RTR
+ -t 0.482952590 -s 28 -d -1 -p message -e 32 -c 2 -a 0 -i 9 -k RTR 
- -t 0.482952590 -s 28 -d -1 -p message -e 32 -c 2 -a 0 -i 9 -k RTR
h -t 0.482952590 -s 28 -d -1 -p message -e 32 -c 2 -a 0 -i 9 -k RTR
+ -t 0.483227590 -s 28 -d -1 -p message -e 90 -c 2 -a 0 -i 9 -k MAC 
- -t 0.483227590 -s 28 -d -1 -p message -e 90 -c 2 -a 0 -i 9 -k MAC
h -t 0.483227590 -s 28 -d -1 -p message -e 90 -c 2 -a 0 -i 9 -k MAC
r -t 0.483947749 -s 7 -d -1 -p message -e 32 -c 2 -a 0 -i 9 -k MAC
r -t 0.483947892 -s 26 -d -1 -p message -e 32 -c 2 -a 0 -i 9 -k MAC
r -t 0.483947951 -s 15 -d -1 -p message -e 32 -c 2 -a 0 -i 9 -k MAC
r -t 0.483948097 -s 18 -d -1 -p message -e 32 -c 2 -a 0 -i 9 -k MAC
r -t 0.483948241 -s 13 -d -1 -p message -e 32 -c 2 -a 0 -i 9 -k MAC
r -t 0.483948245 -s 3 -d -1 -p message -e 32 -c 2 -a 0 -i 9 -k MAC
r -t 0.483948285 -s 24 -d -1 -p message -e 32 -c 2 -a 0 -i 9 -k MAC
r -t 0.483948313 -s 9 -d -1 -p message -e 32 -c 2 -a 0 -i 9 -k MAC
r -t 0.483948420 -s 12 -d -1 -p message -e 32 -c 2 -a 0 -i 9 -k MAC
r -t 0.483972749 -s 7 -d -1 -p message -e 32 -c 2 -a 0 -i 9 -k RTR
r -t 0.483972892 -s 26 -d -1 -p message -e 32 -c 2 -a 0 -i 9 -k RTR
r -t 0.483972951 -s 15 -d -1 -p message -e 32 -c 2 -a 0 -i 9 -k RTR
r -t 0.483973097 -s 18 -d -1 -p message -e 32 -c 2 -a 0 -i 9 -k RTR
r -t 0.483973241 -s 13 -d -1 -p message -e 32 -c 2 -a 0 -i 9 -k RTR
r -t 0.483973245 -s 3 -d -1 -p message -e 32 -c 2 -a 0 -i 9 -k RTR
r -t 0.483973285 -s 24 -d -1 -p message -e 32 -c 2 -a 0 -i 9 -k RTR
r -t 0.483973313 -s 9 -d -1 -p message -e 32 -c 2 -a 0 -i 9 -k RTR
r -t 0.483973420 -s 12 -d -1 -p message -e 32 -c 2 -a 0 -i 9 -k RTR
+ -t 0.520388098 -s 20 -d -1 -p message -e 32 -c 2 -a 0 -i 10 -k RTR 
- -t 0.520388098 -s 20 -d -1 -p message -e 32 -c 2 -a 0 -i 10 -k RTR
h -t 0.520388098 -s 20 -d -1 -p message -e 32 -c 2 -a 0 -i 10 -k RTR
+ -t 0.520663098 -s 20 -d -1 -p message -e 90 -c 2 -a 0 -i 10 -k MAC 
- -t 0.520663098 -s 20 -d -1 -p message -e 90 -c 2 -a 0 -i 10 -k MAC
h -t 0.520663098 -s 20 -d -1 -p message -e 90 -c 2 -a 0 -i 10 -k MAC
r -t 0.521383725 -s 4 -d -1 -p message -e 32 -c 2 -a 0 -i 10 -k MAC
r -t 0.521383903 -s 17 -d -1 -p message -e 32 -c 2 -a 0 -i 10 -k MAC
r -t 0.521408725 -s 4 -d -1 -p message -e 32 -c 2 -a 0 -i 10 -k RTR
r -t 0.521408903 -s 17 -d -1 -p message -e 32 -c 2 -a 0 -i 10 -k RTR
+ -t 0.625438533 -s 8 -d -1 -p message -e 32 -c 2 -a 0 -i 11 -k RTR 
- -t 0.625438533 -s 8 -d -1 -p message -e 32 -c 2 -a 0 -i 11 -k RTR
h -t 0.625438533 -s 8 -d -1 -p message -e 32 -c 2 -a 0 -i 11 -k RTR
+ -t 0.625633533 -s 8 -d -1 -p message -e 90 -c 2 -a 0 -i 11 -k MAC 
- -t 0.625633533 -s 8 -d -1 -p message -e 90 -c 2 -a 0 -i 11 -k MAC
h -t 0.625633533 -s 8 -d -1 -p message -e 90 -c 2 -a 0 -i 11 -k MAC
r -t 0.626353871 -s 2 -d -1 -p message -e 32 -c 2 -a 0 -i 11 -k MAC
r -t 0.626354039 -s 27 -d -1 -p message -e 32 -c 2 -a 0 -i 11 -k MAC
r -t 0.626354266 -s 16 -d -1 -p message -e 32 -c 2 -a 0 -i 11 -k MAC
r -t 0.626354326 -s 0 -d -1 -p message -e 32 -c 2 -a 0 -i 11 -k MAC
r -t 0.626378871 -s 2 -d -1 -p message -e 32 -c 2 -a 0 -i 11 -k RTR
r -t 0.626379039 -s 27 -d -1 -p message -e 32 -c 2 -a 0 -i 11 -k RTR
r -t 0.626379266 -s 16 -d -1 -p message -e 32 -c 2 -a 0 -i 11 -k RTR
r -t 0.626379326 -s 0 -d -1 -p message -e 32 -c 2 -a 0 -i 11 -k RTR
+ -t 0.633281949 -s 4 -d -1 -p message -e 32 -c 2 -a 0 -i 12 -k RTR 
- -t 0.633281949 -s 4 -d -1 -p message -e 32 -c 2 -a 0 -i 12 -k RTR
h -t 0.633281949 -s 4 -d -1 -p message -e 32 -c 2 -a 0 -i 12 -k RTR
+ -t 0.633956949 -s 4 -d -1 -p message -e 90 -c 2 -a 0 -i 12 -k MAC 
- -t 0.633956949 -s 4 -d -1 -p message -e 90 -c 2 -a 0 -i 12 -k MAC
h -t 0.633956949 -s 4 -d -1 -p message -e 90 -c 2 -a 0 -i 12 -k MAC
r -t 0.634677378 -s 3 -d -1 -p message -e 32 -c 2 -a 0 -i 12 -k MAC
r -t 0.634677575 -s 20 -d -1 -p message -e 32 -c 2 -a 0 -i 12 -k MAC
r -t 0.634677662 -s 17 -d -1 -p message -e 32 -c 2 -a 0 -i 12 -k MAC
r -t 0.634702378 -s 3 -d -1 -p message -e 32 -c 2 -a 0 -i 12 -k RTR
r -t 0.634702575 -s 20 -d -1 -p message -e 32 -c 2 -a 0 -i 12 -k RTR
r -t 0.634702662 -s 17 -d -1 -p message -e 32 -c 2 -a 0 -i 12 -k RTR
+ -t 0.705319802 -s 19 -d -1 -p message -e 32 -c 2 -a 0 -i 13 -k RTR 
- -t 0.705319802 -s 19 -d -1 -p message -e 32 -c 2 -a 0 -i 13 -k RTR
h -t 0.705319802 -s 19 -d -1 -p message -e 32 -c 2 -a 0 -i 13 -k RTR
+ -t 0.705694802 -s 19 -d -1 -p message -e 90 -c 2 -a 0 -i 13 -k MAC 
- -t 0.705694802 -s 19 -d -1 -p message -e 90 -c 2 -a 0 -i 13 -k MAC
h -t 0.705694802 -s 19 -d -1 -p message -e 90 -c 2 -a 0 -i 13 -k MAC
r -t 0.706415288 -s 11 -d -1 -p message -e 32 -c 2 -a 0 -i 13 -k MAC
r -t 0.706415367 -s 24 -d -1 -p message -e 32 -c 2 -a 0 -i 13 -k MAC
r -t 0.706415371 -s 23 -d -1 -p message -e 32 -c 2 -a 0 -i 13 -k MAC
r -t 0.706415371 -s 10 -d -1 -p message -e 32 -c 2 -a 0 -i 13 -k MAC
r -t 0.706415432 -s 6 -d -1 -p message -e 32 -c 2 -a 0 -i 13 -k MAC
r -t 0.706415570 -s 13 -d -1 -p message -e 32 -c 2 -a 0 -i 13 -k MAC
r -t 0.706415600 -s 18 -d -1 -p message -e 32 -c 2 -a 0 -i 13 -k MAC
r -t 0.706415622 -s 15 -d -1 -p message -e 32 -c 2 -a 0 -i 13 -k MAC
r -t 0.706440288 -s 11 -d -1 -p message -e 32 -c 2 -a 0 -i 13 -k RTR
r -t 0.706440367 -s 24 -d -1 -p message -e 32 -c 2 -a 0 -i 13 -k RTR
r -t 0.706440371 -s 23 -d -1 -p message -e 32 -c 2 -a 0 -i 13 -k RTR
r -t 0.706440371 -s 10 -d -1 -p message -e 32 -c 2 -a 0 -i 13 -k RTR
r -t 0.706440432 -s 6 -d -1 -p message -e 32 -c 2 -a 0 -i 13 -k RTR
r -t 0.706440570 -s 13 -d -1 -p message -e 32 -c 2 -a 0 -i 13 -k RTR
r -t 0.706440600 -s 18 -d -1 -p message -e 32 -c 2 -a 0 -i 13 -k RTR
r -t 0.706440622 -s 15 -d -1 -p message -e 32 -c 2 -a 0 -i 13 -k RTR
+ -t 0.822832582 -s 21 -d -1 -p message -e 32 -c 2 -a 0 -i 14 -k RTR 
- -t 0.822832582 -s 21 -d -1 -p message -e 32 -c 2 -a 0 -i 14 -k RTR
h -t 0.822832582 -s 21 -d -1 -p message -e 32 -c 2 -a 0 -i 14 -k RTR
+ -t 0.823487582 -s 21 -d -1 -p message -e 90 -c 2 -a 0 -i 14 -k MAC 
- -t 0.823487582 -s 21 -d -1 -p message -e 90 -c 2 -a 0 -i 14 -k MAC
h -t 0.823487582 -s 21 -d -1 -p message -e 90 -c 2 -a 0 -i 14 -k MAC
r -t 0.824207901 -s 0 -d -1 -p message -e 32 -c 2 -a 0 -i 14 -k MAC
r -t 0.824208282 -s 9 -d -1 -p message -e 32 -c 2 -a 0 -i 14 -k MAC
r -t 0.824232901 -s 0 -d -1 -p message -e 32 -c 2 -a 0 -i 14 -k RTR
r -t 0.824233282 -s 9 -d -1 -p message -e 32 -c 2 -a 0 -i 14 -k RTR
+ -t 0.850635617 -s 15 -d -1 -p message -e 32 -c 2 -a 0 -i 15 -k RTR 
- -t 0.850635617 -s 15 -d -1 -p message -e 32 -c 2 -a 0 -i 15 -k RTR
h -t 0.850635617 -s 15 -d -1 -p message -e 32 -c 2 -a 0 -i 15 -k RTR
+ -t 0.851150617 -s 15 -d -1 -p message -e 90 -c 2 -a 0 -i 15 -k MAC 
- -t 0.851150617 -s 15 -d -1 -p message -e 90 -c 2 -a 0 -i 15 -k MAC
h -t 0.851150617 -s 15 -d -1 -p message -e 90 -c 2 -a 0 -i 15 -k MAC
r -t 0.851870956 -s 24 -d -1 -p message -e 32 -c 2 -a 0 -i 15 -k MAC
r -t 0.851870978 -s 28 -d -1 -p message -e 32 -c 2 -a 0 -i 15 -k MAC
r -t 0.851871020 -s 7 -d -1 -p message -e 32 -c 2 -a 0 -i 15 -k MAC
r -t 0.851871079 -s 26 -d -1 -p message -e 32 -c 2 -a 0 -i 15 -k MAC
r -t 0.851871117 -s 12 -d -1 -p message -e 32 -c 2 -a 0 -i 15 -k MAC
r -t 0.851871158 -s 18 -d -1 -p message -e 32 -c 2 -a 0 -i 15 -k MAC
r -t 0.851871276 -s 9 -d -1 -p message -e 32 -c 2 -a 0 -i 15 -k MAC
r -t 0.851871282 -s 13 -d -1 -p message -e 32 -c 2 -a 0 -i 15 -k MAC
r -t 0.851871437 -s 19 -d -1 -p message -e 32 -c 2 -a 0 -i 15 -k MAC
r -t 0.851895956 -s 24 -d -1 -p message -e 32 -c 2 -a 0 -i 15 -k RTR
r -t 0.851895978 -s 28 -d -1 -p message -e 32 -c 2 -a 0 -i 15 -k RTR
r -t 0.851896020 -s 7 -d -1 -p message -e 32 -c 2 -a 0 -i 15 -k RTR
r -t 0.851896079 -s 26 -d -1 -p message -e 32 -c 2 -a 0 -i 15 -k RTR
r -t 0.851896117 -s 12 -d -1 -p message -e 32 -c 2 -a 0 -i 15 -k RTR
r -t 0.851896158 -s 18 -d -1 -p message -e 32 -c 2 -a 0 -i 15 -k RTR
r -t 0.851896276 -s 9 -d -1 -p message -e 32 -c 2 -a 0 -i 15 -k RTR
r -t 0.851896282 -s 13 -d -1 -p message -e 32 -c 2 -a 0 -i 15 -k RTR
r -t 0.851896437 -s 19 -d -1 -p message -e 32 -c 2 -a 0 -i 15 -k RTR
+ -t 0.885999237 -s 2 -d -1 -p message -e 32 -c 2 -a 0 -i 16 -k RTR 
- -t 0.885999237 -s 2 -d -1 -p message -e 32 -c 2 -a 0 -i 16 -k RTR
h -t 0.885999237 -s 2 -d -1 -p message -e 32 -c 2 -a 0 -i 16 -k RTR
+ -t 0.886294237 -s 2 -d -1 -p message -e 90 -c 2 -a 0 -i 16 -k MAC 
- -t 0.886294237 -s 2 -d -1 -p message -e 90 -c 2 -a 0 -i 16 -k MAC
h -t 0.886294237 -s 2 -d -1 -p message -e 90 -c 2 -a 0 -i 16 -k MAC
r -t 0.887014477 -s 27 -d -1 -p message -e 32 -c 2 -a 0 -i 16 -k MAC
r -t 0.887014575 -s 8 -d -1 -p message -e 32 -c 2 -a 0 -i 16 -k MAC
r -t 0.887039477 -s 27 -d -1 -p message -e 32 -c 2 -a 0 -i 16 -k RTR
r -t 0.887039575 -s 8 -d -1 -p message -e 32 -c 2 -a 0 -i 16 -k RTR
+ -t 0.941044448 -s 23 -d -1 -p message -e 32 -c 2 -a 0 -i 17 -k RTR 
- -t 0.941044448 -s 23 -d -1 -p message -e 32 -c 2 -a 0 -i 17 -k RTR
h -t 0.941044448 -s 23 -d -1 -p message -e 32 -c 2 -a 0 -i 17 -k RTR
+ -t 0.941439448 -s 23 -d -1 -p message -e 90 -c 2 -a 0 -i 17 -k MAC 
- -t 0.941439448 -s 23 -d -1 -p message -e 90 -c 2 -a 0 -i 17 -k MAC
h -t 0.941439448 -s 23 -d -1 -p message -e 90 -c 2 -a 0 -i 17 -k MAC
r -t 0.942159972 -s 25 -d -1 -p message -e 32 -c 2 -a 0 -i 17 -k MAC
r -t 0.942160017 -s 19 -d -1 -p message -e 32 -c 2 -a 0 -i 17 -k MAC
r -t 0.942160133 -s 22 -d -1 -p message -e 32 -c 2 -a 0 -i 17 -k MAC
r -t 0.942160212 -s 6 -d -1 -p message -e 32 -c 2 -a 0 -i 17 -k MAC
r -t 0.942184972 -s 25 -d -1 -p message -e 32 -c 2 -a 0 -i 17 -k RTR
r -t 0.942185017 -s 19 -d -1 -p message -e 32 -c 2 -a 0 -i 17 -k RTR
r -t 0.942185133 -s 22 -d -1 -p message -e 32 -c 2 -a 0 -i 17 -k RTR
r -t 0.942185212 -s 6 -d -1 -p message -e 32 -c 2 -a 0 -i 17 -k RTR
n -t 1.000000 -s 0 -x 3385.000000 -y 3955.000000 -U 8.393142 -V -5.436467 -T 20.969502
+ -t 1.000000000 -s 0 -d -1 -p tcp -e 40 -c 2 -a 0 -i 18 -k AGT 
- -t 1.000000000 -s 0 -d -1 -p tcp -e 40 -c 2 -a 0 -i 18 -k AGT
h -t 1.000000000 -s 0 -d -1 -p tcp -e 40 -c 2 -a 0 -i 18 -k AGT
+ -t 1.044849944 -s 22 -d -1 -p message -e 32 -c 2 -a 0 -i 19 -k RTR 
- -t 1.044849944 -s 22 -d -1 -p message -e 32 -c 2 -a 0 -i 19 -k RTR
h -t 1.044849944 -s 22 -d -1 -p message -e 32 -c 2 -a 0 -i 19 -k RTR
+ -t 1.044944944 -s 22 -d -1 -p message -e 90 -c 2 -a 0 -i 19 -k MAC 
- -t 1.044944944 -s 22 -d -1 -p message -e 90 -c 2 -a 0 -i 19 -k MAC
h -t 1.044944944 -s 22 -d -1 -p message -e 90 -c 2 -a 0 -i 19 -k MAC
r -t 1.045665630 -s 23 -d -1 -p message -e 32 -c 2 -a 0 -i 19 -k MAC
r -t 1.045665675 -s 12 -d -1 -p message -e 32 -c 2 -a 0 -i 19 -k MAC
r -t 1.045665768 -s 24 -d -1 -p message -e 32 -c 2 -a 0 -i 19 -k MAC
r -t 1.045690630 -s 23 -d -1 -p message -e 32 -c 2 -a 0 -i 19 -k RTR
r -t 1.045690675 -s 12 -d -1 -p message -e 32 -c 2 -a 0 -i 19 -k RTR
r -t 1.045690768 -s 24 -d -1 -p message -e 32 -c 2 -a 0 -i 19 -k RTR
+ -t 1.280295290 -s 12 -d -1 -p message -e 32 -c 2 -a 0 -i 21 -k RTR 
- -t 1.280295290 -s 12 -d -1 -p message -e 32 -c 2 -a 0 -i 21 -k RTR
h -t 1.280295290 -s 12 -d -1 -p message -e 32 -c 2 -a 0 -i 21 -k RTR
+ -t 1.280970290 -s 12 -d -1 -p message -e 90 -c 2 -a 0 -i 21 -k MAC 
- -t 1.280970290 -s 12 -d -1 -p message -e 90 -c 2 -a 0 -i 21 -k MAC
h -t 1.280970290 -s 12 -d -1 -p message -e 90 -c 2 -a 0 -i 21 -k MAC
r -t 1.281690642 -s 24 -d -1 -p message -e 32 -c 2 -a 0 -i 21 -k MAC
r -t 1.281690790 -s 15 -d -1 -p message -e 32 -c 2 -a 0 -i 21 -k MAC
r -t 1.281690921 -s 9 -d -1 -p message -e 32 -c 2 -a 0 -i 21 -k MAC
r -t 1.281690981 -s 27 -d -1 -p message -e 32 -c 2 -a 0 -i 21 -k MAC
r -t 1.281691021 -s 22 -d -1 -p message -e 32 -c 2 -a 0 -i 21 -k MAC
r -t 1.281691071 -s 26 -d -1 -p message -e 32 -c 2 -a 0 -i 21 -k MAC
r -t 1.281691120 -s 28 -d -1 -p message -e 32 -c 2 -a 0 -i 21 -k MAC
r -t 1.281715642 -s 24 -d -1 -p message -e 32 -c 2 -a 0 -i 21 -k RTR
r -t 1.281715790 -s 15 -d -1 -p message -e 32 -c 2 -a 0 -i 21 -k RTR
r -t 1.281715921 -s 9 -d -1 -p message -e 32 -c 2 -a 0 -i 21 -k RTR
r -t 1.281715981 -s 27 -d -1 -p message -e 32 -c 2 -a 0 -i 21 -k RTR
r -t 1.281716021 -s 22 -d -1 -p message -e 32 -c 2 -a 0 -i 21 -k RTR
r -t 1.281716071 -s 26 -d -1 -p message -e 32 -c 2 -a 0 -i 21 -k RTR
r -t 1.281716120 -s 28 -d -1 -p message -e 32 -c 2 -a 0 -i 21 -k RTR
+ -t 1.282242901 -s 7 -d -1 -p message -e 32 -c 2 -a 0 -i 20 -k RTR 
- -t 1.282242901 -s 7 -d -1 -p message -e 32 -c 2 -a 0 -i 20 -k RTR
h -t 1.282242901 -s 7 -d -1 -p message -e 32 -c 2 -a 0 -i 20 -k RTR
+ -t 1.282337901 -s 7 -d -1 -p message -e 90 -c 2 -a 0 -i 20 -k MAC 
- -t 1.282337901 -s 7 -d -1 -p message -e 90 -c 2 -a 0 -i 20 -k MAC
h -t 1.282337901 -s 7 -d -1 -p message -e 90 -c 2 -a 0 -i 20 -k MAC
r -t 1.283058060 -s 28 -d -1 -p message -e 32 -c 2 -a 0 -i 20 -k MAC
r -t 1.283058260 -s 18 -d -1 -p message -e 32 -c 2 -a 0 -i 20 -k MAC
r -t 1.283058304 -s 15 -d -1 -p message -e 32 -c 2 -a 0 -i 20 -k MAC
r -t 1.283058362 -s 26 -d -1 -p message -e 32 -c 2 -a 0 -i 20 -k MAC
r -t 1.283058402 -s 13 -d -1 -p message -e 32 -c 2 -a 0 -i 20 -k MAC
r -t 1.283058435 -s 3 -d -1 -p message -e 32 -c 2 -a 0 -i 20 -k MAC
r -t 1.283058605 -s 24 -d -1 -p message -e 32 -c 2 -a 0 -i 20 -k MAC
r -t 1.283058689 -s 17 -d -1 -p message -e 32 -c 2 -a 0 -i 20 -k MAC
r -t 1.283058730 -s 10 -d -1 -p message -e 32 -c 2 -a 0 -i 20 -k MAC
r -t 1.283083060 -s 28 -d -1 -p message -e 32 -c 2 -a 0 -i 20 -k RTR
r -t 1.283083260 -s 18 -d -1 -p message -e 32 -c 2 -a 0 -i 20 -k RTR
r -t 1.283083304 -s 15 -d -1 -p message -e 32 -c 2 -a 0 -i 20 -k RTR
r -t 1.283083362 -s 26 -d -1 -p message -e 32 -c 2 -a 0 -i 20 -k RTR
r -t 1.283083402 -s 13 -d -1 -p message -e 32 -c 2 -a 0 -i 20 -k RTR
r -t 1.283083435 -s 3 -d -1 -p message -e 32 -c 2 -a 0 -i 20 -k RTR
r -t 1.283083605 -s 24 -d -1 -p message -e 32 -c 2 -a 0 -i 20 -k RTR
r -t 1.283083689 -s 17 -d -1 -p message -e 32 -c 2 -a 0 -i 20 -k RTR
r -t 1.283083730 -s 10 -d -1 -p message -e 32 -c 2 -a 0 -i 20 -k RTR
+ -t 1.386755185 -s 24 -d -1 -p message -e 32 -c 2 -a 0 -i 22 -k RTR 
- -t 1.386755185 -s 24 -d -1 -p message -e 32 -c 2 -a 0 -i 22 -k RTR
h -t 1.386755185 -s 24 -d -1 -p message -e 32 -c 2 -a 0 -i 22 -k RTR
+ -t 1.386850185 -s 24 -d -1 -p message -e 90 -c 2 -a 0 -i 22 -k MAC 
- -t 1.386850185 -s 24 -d -1 -p message -e 90 -c 2 -a 0 -i 22 -k MAC
h -t 1.386850185 -s 24 -d -1 -p message -e 90 -c 2 -a 0 -i 22 -k MAC
r -t 1.387570524 -s 15 -d -1 -p message -e 32 -c 2 -a 0 -i 22 -k MAC
r -t 1.387570537 -s 12 -d -1 -p message -e 32 -c 2 -a 0 -i 22 -k MAC
r -t 1.387570751 -s 19 -d -1 -p message -e 32 -c 2 -a 0 -i 22 -k MAC
r -t 1.387570877 -s 18 -d -1 -p message -e 32 -c 2 -a 0 -i 22 -k MAC
r -t 1.387570880 -s 28 -d -1 -p message -e 32 -c 2 -a 0 -i 22 -k MAC
r -t 1.387570889 -s 7 -d -1 -p message -e 32 -c 2 -a 0 -i 22 -k MAC
r -t 1.387570952 -s 13 -d -1 -p message -e 32 -c 2 -a 0 -i 22 -k MAC
r -t 1.387570965 -s 26 -d -1 -p message -e 32 -c 2 -a 0 -i 22 -k MAC
r -t 1.387571008 -s 22 -d -1 -p message -e 32 -c 2 -a 0 -i 22 -k MAC
r -t 1.387571016 -s 10 -d -1 -p message -e 32 -c 2 -a 0 -i 22 -k MAC
r -t 1.387595524 -s 15 -d -1 -p message -e 32 -c 2 -a 0 -i 22 -k RTR
r -t 1.387595537 -s 12 -d -1 -p message -e 32 -c 2 -a 0 -i 22 -k RTR
r -t 1.387595751 -s 19 -d -1 -p message -e 32 -c 2 -a 0 -i 22 -k RTR
r -t 1.387595877 -s 18 -d -1 -p message -e 32 -c 2 -a 0 -i 22 -k RTR
r -t 1.387595880 -s 28 -d -1 -p message -e 32 -c 2 -a 0 -i 22 -k RTR
r -t 1.387595889 -s 7 -d -1 -p message -e 32 -c 2 -a 0 -i 22 -k RTR
r -t 1.387595952 -s 13 -d -1 -p message -e 32 -c 2 -a 0 -i 22 -k RTR
r -t 1.387595965 -s 26 -d -1 -p message -e 32 -c 2 -a 0 -i 22 -k RTR
r -t 1.387596008 -s 22 -d -1 -p message -e 32 -c 2 -a 0 -i 22 -k RTR
r -t 1.387596016 -s 10 -d -1 -p message -e 32 -c 2 -a 0 -i 22 -k RTR
+ -t 1.605667442 -s 3 -d -1 -p message -e 32 -c 2 -a 0 -i 23 -k RTR 
- -t 1.605667442 -s 3 -d -1 -p message -e 32 -c 2 -a 0 -i 23 -k RTR
h -t 1.605667442 -s 3 -d -1 -p message -e 32 -c 2 -a 0 -i 23 -k RTR
+ -t 1.606122442 -s 3 -d -1 -p message -e 90 -c 2 -a 0 -i 23 -k MAC 
- -t 1.606122442 -s 3 -d -1 -p message -e 90 -c 2 -a 0 -i 23 -k MAC
h -t 1.606122442 -s 3 -d -1 -p message -e 90 -c 2 -a 0 -i 23 -k MAC
r -t 1.606842872 -s 4 -d -1 -p message -e 32 -c 2 -a 0 -i 23 -k MAC
r -t 1.606842976 -s 7 -d -1 -p message -e 32 -c 2 -a 0 -i 23 -k MAC
r -t 1.606842990 -s 18 -d -1 -p message -e 32 -c 2 -a 0 -i 23 -k MAC
r -t 1.606843027 -s 13 -d -1 -p message -e 32 -c 2 -a 0 -i 23 -k MAC
r -t 1.606843090 -s 17 -d -1 -p message -e 32 -c 2 -a 0 -i 23 -k MAC
r -t 1.606843097 -s 28 -d -1 -p message -e 32 -c 2 -a 0 -i 23 -k MAC
r -t 1.606867872 -s 4 -d -1 -p message -e 32 -c 2 -a 0 -i 23 -k RTR
r -t 1.606867976 -s 7 -d -1 -p message -e 32 -c 2 -a 0 -i 23 -k RTR
r -t 1.606867990 -s 18 -d -1 -p message -e 32 -c 2 -a 0 -i 23 -k RTR
r -t 1.606868027 -s 13 -d -1 -p message -e 32 -c 2 -a 0 -i 23 -k RTR
r -t 1.606868090 -s 17 -d -1 -p message -e 32 -c 2 -a 0 -i 23 -k RTR
r -t 1.606868097 -s 28 -d -1 -p message -e 32 -c 2 -a 0 -i 23 -k RTR
+ -t 1.622564935 -s 18 -d -1 -p message -e 32 -c 2 -a 0 -i 24 -k RTR 
- -t 1.622564935 -s 18 -d -1 -p message -e 32 -c 2 -a 0 -i 24 -k RTR
h -t 1.622564935 -s 18 -d -1 -p message -e 32 -c 2 -a 0 -i 24 -k RTR
+ -t 1.623179935 -s 18 -d -1 -p message -e 90 -c 2 -a 0 -i 24 -k MAC 
- -t 1.623179935 -s 18 -d -1 -p message -e 90 -c 2 -a 0 -i 24 -k MAC
h -t 1.623179935 -s 18 -d -1 -p message -e 90 -c 2 -a 0 -i 24 -k MAC
r -t 1.623900080 -s 13 -d -1 -p message -e 32 -c 2 -a 0 -i 24 -k MAC
r -t 1.623900295 -s 7 -d -1 -p message -e 32 -c 2 -a 0 -i 24 -k MAC