0.00000  -1 -1 -1 -1 cwnd_ 1.000 
0.00000  -1 -1 -1 -1 ssthresh_ 20
0.00000  -1 -1 -1 -1 ack_ -1
0.00000  -1 -1 -1 -1 maxseq_ -1
M 1.00000 2 (1361.00, 1839.00, 0.00), (1424.00, 1740.00), 10.00
M 1.00000 5 (1733.00, 1808.00, 0.00), (1625.00, 1789.00), 10.00
s 1.000000000 _0_ AGT  --- 0 tcp 40 [0 0 0 0] ------- [0:0 9:0 32 0] [0 -1] 0 0
r 1.000000000 _0_ RTR  --- 0 tcp 40 [0 0 0 0] ------- [0:0 9:0 32 0] [0 -1] 0 0
1.00000  0  0  9  0  maxseq_ 1
s 1.000000000 _0_ RTR  --- 0 AODV 48 [0 0 0 0] ------- [0:255 -1:255 30 0] [0x2 1 1 [9 0] [0 4]] (REQUEST)
s 1.000375000 _0_ MAC  --- 0 AODV 106 [0 ffffffff 0 800] ------- [0:255 -1:255 30 0] [0x2 1 1 [9 0] [0 4]] (REQUEST)
r 1.001223708 _2_ MAC  --- 0 AODV 48 [0 ffffffff 0 800] ------- [0:255 -1:255 30 0] [0x2 1 1 [9 0] [0 4]] (REQUEST)
r 1.001223778 _1_ MAC  --- 0 AODV 48 [0 ffffffff 0 800] ------- [0:255 -1:255 30 0] [0x2 1 1 [9 0] [0 4]] (REQUEST)
r 1.001248708 _2_ RTR  --- 0 AODV 48 [0 ffffffff 0 800] ------- [0:255 -1:255 30 0] [0x2 1 1 [9 0] [0 4]] (REQUEST)
r 1.001248778 _1_ RTR  --- 0 AODV 48 [0 ffffffff 0 800] ------- [0:255 -1:255 30 0] [0x2 1 1 [9 0] [0 4]] (REQUEST)
s 1.004378396 _1_ RTR  --- 0 AODV 48 [0 ffffffff 0 800] ------- [1:255 -1:255 29 0] [0x2 2 1 [9 0] [0 4]] (REQUEST)
s 1.004653396 _1_ MAC  --- 0 AODV 106 [0 ffffffff 1 800] ------- [1:255 -1:255 29 0] [0x2 2 1 [9 0] [0 4]] (REQUEST)
r 1.005501898 _6_ MAC  --- 0 AODV 48 [0 ffffffff 1 800] ------- [1:255 -1:255 29 0] [0x2 2 1 [9 0] [0 4]] (REQUEST)
r 1.005502174 _0_ MAC  --- 0 AODV 48 [0 ffffffff 1 800] ------- [1:255 -1:255 29 0] [0x2 2 1 [9 0] [0 4]] (REQUEST)
r 1.005526898 _6_ RTR  --- 0 AODV 48 [0 ffffffff 1 800] ------- [1:255 -1:255 29 0] [0x2 2 1 [9 0] [0 4]] (REQUEST)
r 1.005527174 _0_ RTR  --- 0 AODV 48 [0 ffffffff 1 800] ------- [1:255 -1:255 29 0] [0x2 2 1 [9 0] [0 4]] (REQUEST)
s 1.009240263 _2_ RTR  --- 0 AODV 48 [0 ffffffff 0 800] ------- [2:255 -1:255 29 0] [0x2 2 1 [9 0] [0 4]] (REQUEST)
s 1.009575263 _2_ MAC  --- 0 AODV 106 [0 ffffffff 2 800] ------- [2:255 -1:255 29 0] [0x2 2 1 [9 0] [0 4]] (REQUEST)
r 1.010423934 _3_ MAC  --- 0 AODV 48 [0 ffffffff 2 800] ------- [2:255 -1:255 29 0] [0x2 2 1 [9 0] [0 4]] (REQUEST)
r 1.010423971 _0_ MAC  --- 0 AODV 48 [0 ffffffff 2 800] ------- [2:255 -1:255 29 0] [0x2 2 1 [9 0] [0 4]] (REQUEST)
r 1.010448934 _3_ RTR  --- 0 AODV 48 [0 ffffffff 2 800] ------- [2:255 -1:255 29 0] [0x2 2 1 [9 0] [0 4]] (REQUEST)
r 1.010448971 _0_ RTR  --- 0 AODV 48 [0 ffffffff 2 800] ------- [2:255 -1:255 29 0] [0x2 2 1 [9 0] [0 4]] (REQUEST)
s 1.011915549 _6_ RTR  --- 0 AODV 48 [0 ffffffff 1 800] ------- [6:255 -1:255 28 0] [0x2 3 1 [9 0] [0 4]] (REQUEST)
s 1.012090388 _3_ RTR  --- 0 AODV 48 [0 ffffffff 2 800] ------- [3:255 -1:255 28 0] [0x2 3 1 [9 0] [0 4]] (REQUEST)
s 1.012325388 _3_ MAC  --- 0 AODV 106 [0 ffffffff 3 800] ------- [3:255 -1:255 28 0] [0x2 3 1 [9 0] [0 4]] (REQUEST)
r 1.013174059 _2_ MAC  --- 0 AODV 48 [0 ffffffff 3 800] ------- [3:255 -1:255 28 0] [0x2 3 1 [9 0] [0 4]] (REQUEST)
r 1.013174091 _5_ MAC  --- 0 AODV 48 [0 ffffffff 3 800] ------- [3:255 -1:255 28 0] [0x2 3 1 [9 0] [0 4]] (REQUEST)
r 1.013199059 _2_ RTR  --- 0 AODV 48 [0 ffffffff 3 800] ------- [3:255 -1:255 28 0] [0x2 3 1 [9 0] [0 4]] (REQUEST)
r 1.013199091 _5_ RTR  --- 0 AODV 48 [0 ffffffff 3 800] ------- [3:255 -1:255 28 0] [0x2 3 1 [9 0] [0 4]] (REQUEST)
s 1.013808591 _6_ MAC  --- 0 AODV 106 [0 ffffffff 6 800] ------- [6:255 -1:255 28 0] [0x2 3 1 [9 0] [0 4]] (REQUEST)
r 1.014657082 _4_ MAC  --- 0 AODV 48 [0 ffffffff 6 800] ------- [6:255 -1:255 28 0] [0x2 3 1 [9 0] [0 4]] (REQUEST)
r 1.014657093 _1_ MAC  --- 0 AODV 48 [0 ffffffff 6 800] ------- [6:255 -1:255 28 0] [0x2 3 1 [9 0] [0 4]] (REQUEST)
r 1.014657322 _7_ MAC  --- 0 AODV 48 [0 ffffffff 6 800] ------- [6:255 -1:255 28 0] [0x2 3 1 [9 0] [0 4]] (REQUEST)
r 1.014682082 _4_ RTR  --- 0 AODV 48 [0 ffffffff 6 800] ------- [6:255 -1:255 28 0] [0x2 3 1 [9 0] [0 4]] (REQUEST)
r 1.014682093 _1_ RTR  --- 0 AODV 48 [0 ffffffff 6 800] ------- [6:255 -1:255 28 0] [0x2 3 1 [9 0] [0 4]] (REQUEST)
r 1.014682322 _7_ RTR  --- 0 AODV 48 [0 ffffffff 6 800] ------- [6:255 -1:255 28 0] [0x2 3 1 [9 0] [0 4]] (REQUEST)
s 1.015623710 _7_ RTR  --- 0 AODV 48 [0 ffffffff 6 800] ------- [7:255 -1:255 27 0] [0x2 4 1 [9 0] [0 4]] (REQUEST)
s 1.016018710 _7_ MAC  --- 0 AODV 106 [0 ffffffff 7 800] ------- [7:255 -1:255 27 0] [0x2 4 1 [9 0] [0 4]] (REQUEST)
s 1.016430134 _4_ RTR  --- 0 AODV 48 [0 ffffffff 6 800] ------- [4:255 -1:255 27 0] [0x2 4 1 [9 0] [0 4]] (REQUEST)
r 1.016867077 _4_ MAC  --- 0 AODV 48 [0 ffffffff 7 800] ------- [7:255 -1:255 27 0] [0x2 4 1 [9 0] [0 4]] (REQUEST)
r 1.016867336 _8_ MAC  --- 0 AODV 48 [0 ffffffff 7 800] ------- [7:255 -1:255 27 0] [0x2 4 1 [9 0] [0 4]] (REQUEST)
r 1.016867410 _5_ MAC  --- 0 AODV 48 [0 ffffffff 7 800] ------- [7:255 -1:255 27 0] [0x2 4 1 [9 0] [0 4]] (REQUEST)
r 1.016867441 _6_ MAC  --- 0 AODV 48 [0 ffffffff 7 800] ------- [7:255 -1:255 27 0] [0x2 4 1 [9 0] [0 4]] (REQUEST)
r 1.016892077 _4_ RTR  --- 0 AODV 48 [0 ffffffff 7 800] ------- [7:255 -1:255 27 0] [0x2 4 1 [9 0] [0 4]] (REQUEST)
r 1.016892336 _8_ RTR  --- 0 AODV 48 [0 ffffffff 7 800] ------- [7:255 -1:255 27 0] [0x2 4 1 [9 0] [0 4]] (REQUEST)
r 1.016892410 _5_ RTR  --- 0 AODV 48 [0 ffffffff 7 800] ------- [7:255 -1:255 27 0] [0x2 4 1 [9 0] [0 4]] (REQUEST)
r 1.016892441 _6_ RTR  --- 0 AODV 48 [0 ffffffff 7 800] ------- [7:255 -1:255 27 0] [0x2 4 1 [9 0] [0 4]] (REQUEST)
s 1.017117077 _4_ MAC  --- 0 AODV 106 [0 ffffffff 4 800] ------- [4:255 -1:255 27 0] [0x2 4 1 [9 0] [0 4]] (REQUEST)
r 1.017965444 _7_ MAC  --- 0 AODV 48 [0 ffffffff 4 800] ------- [4:255 -1:255 27 0] [0x2 4 1 [9 0] [0 4]] (REQUEST)
r 1.017965568 _6_ MAC  --- 0 AODV 48 [0 ffffffff 4 800] ------- [4:255 -1:255 27 0] [0x2 4 1 [9 0] [0 4]] (REQUEST)
r 1.017965712 _5_ MAC  --- 0 AODV 48 [0 ffffffff 4 800] ------- [4:255 -1:255 27 0] [0x2 4 1 [9 0] [0 4]] (REQUEST)
r 1.017965829 _8_ MAC  --- 0 AODV 48 [0 ffffffff 4 800] ------- [4:255 -1:255 27 0] [0x2 4 1 [9 0] [0 4]] (REQUEST)
r 1.017990444 _7_ RTR  --- 0 AODV 48 [0 ffffffff 4 800] ------- [4:255 -1:255 27 0] [0x2 4 1 [9 0] [0 4]] (REQUEST)
r 1.017990568 _6_ RTR  --- 0 AODV 48 [0 ffffffff 4 800] ------- [4:255 -1:255 27 0] [0x2 4 1 [9 0] [0 4]] (REQUEST)
r 1.017990712 _5_ RTR  --- 0 AODV 48 [0 ffffffff 4 800] ------- [4:255 -1:255 27 0] [0x2 4 1 [9 0] [0 4]] (REQUEST)
r 1.017990829 _8_ RTR  --- 0 AODV 48 [0 ffffffff 4 800] ------- [4:255 -1:255 27 0] [0x2 4 1 [9 0] [0 4]] (REQUEST)
s 1.020979193 _8_ RTR  --- 0 AODV 48 [0 ffffffff 7 800] ------- [8:255 -1:255 26 0] [0x2 5 1 [9 0] [0 4]] (REQUEST)
s 1.021494193 _8_ MAC  --- 0 AODV 106 [0 ffffffff 8 800] ------- [8:255 -1:255 26 0] [0x2 5 1 [9 0] [0 4]] (REQUEST)
s 1.021796368 _5_ RTR  --- 0 AODV 48 [0 ffffffff 3 800] ------- [5:255 -1:255 27 0] [0x2 4 1 [9 0] [0 4]] (REQUEST)
r 1.022342549 _5_ MAC  --- 0 AODV 48 [0 ffffffff 8 800] ------- [8:255 -1:255 26 0] [0x2 5 1 [9 0] [0 4]] (REQUEST)
r 1.022342630 _9_ MAC  --- 0 AODV 48 [0 ffffffff 8 800] ------- [8:255 -1:255 26 0] [0x2 5 1 [9 0] [0 4]] (REQUEST)
r 1.022342818 _7_ MAC  --- 0 AODV 48 [0 ffffffff 8 800] ------- [8:255 -1:255 26 0] [0x2 5 1 [9 0] [0 4]] (REQUEST)
r 1.022342945 _4_ MAC  --- 0 AODV 48 [0 ffffffff 8 800] ------- [8:255 -1:255 26 0] [0x2 5 1 [9 0] [0 4]] (REQUEST)
r 1.022367549 _5_ RTR  --- 0 AODV 48 [0 ffffffff 8 800] ------- [8:255 -1:255 26 0] [0x2 5 1 [9 0] [0 4]] (REQUEST)
r 1.022367630 _9_ RTR  --- 0 AODV 48 [0 ffffffff 8 800] ------- [8:255 -1:255 26 0] [0x2 5 1 [9 0] [0 4]] (REQUEST)
s 1.022367630 _9_ RTR  --- 0 AODV 44 [0 0 0 0] ------- [9:255 0:255 30 8] [0x4 1 [9 4] 10.000000] (REPLY)
r 1.022367818 _7_ RTR  --- 0 AODV 48 [0 ffffffff 8 800] ------- [8:255 -1:255 26 0] [0x2 5 1 [9 0] [0 4]] (REQUEST)
r 1.022367945 _4_ RTR  --- 0 AODV 48 [0 ffffffff 8 800] ------- [8:255 -1:255 26 0] [0x2 5 1 [9 0] [0 4]] (REQUEST)
s 1.022572549 _5_ MAC  --- 0 AODV 106 [0 ffffffff 5 800] ------- [5:255 -1:255 27 0] [0x2 4 1 [9 0] [0 4]] (REQUEST)
r 1.023420906 _8_ MAC  --- 0 AODV 48 [0 ffffffff 5 800] ------- [5:255 -1:255 27 0] [0x2 4 1 [9 0] [0 4]] (REQUEST)
r 1.023420993 _9_ MAC  --- 0 AODV 48 [0 ffffffff 5 800] ------- [5:255 -1:255 27 0] [0x2 4 1 [9 0] [0 4]] (REQUEST)
r 1.023421184 _4_ MAC  --- 0 AODV 48 [0 ffffffff 5 800] ------- [5:255 -1:255 27 0] [0x2 4 1 [9 0] [0 4]] (REQUEST)
r 1.023421249 _7_ MAC  --- 0 AODV 48 [0 ffffffff 5 800] ------- [5:255 -1:255 27 0] [0x2 4 1 [9 0] [0 4]] (REQUEST)
r 1.023421252 _3_ MAC  --- 0 AODV 48 [0 ffffffff 5 800] ------- [5:255 -1:255 27 0] [0x2 4 1 [9 0] [0 4]] (REQUEST)
r 1.023445906 _8_ RTR  --- 0 AODV 48 [0 ffffffff 5 800] ------- [5:255 -1:255 27 0] [0x2 4 1 [9 0] [0 4]] (REQUEST)
r 1.023445993 _9_ RTR  --- 0 AODV 48 [0 ffffffff 5 800] ------- [5:255 -1:255 27 0] [0x2 4 1 [9 0] [0 4]] (REQUEST)
r 1.023446184 _4_ RTR  --- 0 AODV 48 [0 ffffffff 5 800] ------- [5:255 -1:255 27 0] [0x2 4 1 [9 0] [0 4]] (REQUEST)
r 1.023446249 _7_ RTR  --- 0 AODV 48 [0 ffffffff 5 800] ------- [5:255 -1:255 27 0] [0x2 4 1 [9 0] [0 4]] (REQUEST)
r 1.023446252 _3_ RTR  --- 0 AODV 48 [0 ffffffff 5 800] ------- [5:255 -1:255 27 0] [0x2 4 1 [9 0] [0 4]] (REQUEST)
s 1.023730993 _9_ MAC  --- 0 ARP 86 [0 ffffffff 9 806] ------- [REQUEST 9/9 0/8]
r 1.024419430 _8_ MAC  --- 0 ARP 28 [0 ffffffff 9 806] ------- [REQUEST 9/9 0/8]
r 1.024419437 _5_ MAC  --- 0 ARP 28 [0 ffffffff 9 806] ------- [REQUEST 9/9 0/8]
s 1.024609430 _8_ MAC  --- 0 RTS 44 [52e 9 8 0] 
r 1.024961868 _9_ MAC  --- 0 RTS 44 [52e 9 8 0] 
s 1.024971868 _9_ MAC  --- 0 CTS 38 [3f4 8 0 0] 
r 1.025276305 _8_ MAC  --- 0 CTS 38 [3f4 8 0 0] 
s 1.025286305 _8_ MAC  --- 0 ARP 86 [13a 9 8 806] ------- [REPLY 8/8 9/9]
r 1.025974742 _9_ MAC  --- 0 ARP 28 [13a 9 8 806] ------- [REPLY 8/8 9/9]
s 1.025984742 _9_ MAC  --- 0 ACK 38 [0 8 0 0] 
r 1.026289180 _8_ MAC  --- 0 ACK 38 [0 8 0 0] 
s 1.026558742 _9_ MAC  --- 0 RTS 44 [5ae 8 9 0] 
r 1.026911180 _8_ MAC  --- 0 RTS 44 [5ae 8 9 0] 
s 1.026921180 _8_ MAC  --- 0 CTS 38 [474 9 0 0] 
r 1.027225617 _9_ MAC  --- 0 CTS 38 [474 9 0 0] 
s 1.027235617 _9_ MAC  --- 0 AODV 102 [13a 8 9 800] ------- [9:255 0:255 30 8] [0x4 1 [9 4] 10.000000] (REPLY)
r 1.028052054 _8_ MAC  --- 0 AODV 44 [13a 8 9 800] ------- [9:255 0:255 30 8] [0x4 1 [9 4] 10.000000] (REPLY)
s 1.028062054 _8_ MAC  --- 0 ACK 38 [0 9 0 0] 
r 1.028077054 _8_ RTR  --- 0 AODV 44 [13a 8 9 800] ------- [9:255 0:255 30 8] [0x4 1 [9 4] 10.000000] (REPLY)
f 1.028077054 _8_ RTR  --- 0 AODV 44 [13a 8 9 800] ------- [9:255 0:255 29 7] [0x4 2 [9 4] 10.000000] (REPLY)
r 1.028366491 _9_ MAC  --- 0 ACK 38 [0 9 0 0] 
s 1.028716054 _8_ MAC  --- 0 ARP 86 [0 ffffffff 8 806] ------- [REQUEST 8/8 0/7]
r 1.029404411 _5_ MAC  --- 0 ARP 28 [0 ffffffff 8 806] ------- [REQUEST 8/8 0/7]
r 1.029404491 _9_ MAC  --- 0 ARP 28 [0 ffffffff 8 806] ------- [REQUEST 8/8 0/7]
r 1.029404680 _7_ MAC  --- 0 ARP 28 [0 ffffffff 8 806] ------- [REQUEST 8/8 0/7]
r 1.029404806 _4_ MAC  --- 0 ARP 28 [0 ffffffff 8 806] ------- [REQUEST 8/8 0/7]
s 1.029539680 _7_ MAC  --- 0 RTS 44 [52e 8 7 0] 
r 1.029892305 _8_ MAC  --- 0 RTS 44 [52e 8 7 0] 
s 1.029902305 _8_ MAC  --- 0 CTS 38 [3f4 7 0 0] 
r 1.030206931 _7_ MAC  --- 0 CTS 38 [3f4 7 0 0] 
s 1.030216931 _7_ MAC  --- 0 ARP 86 [13a 8 7 806] ------- [REPLY 7/7 8/8]
r 1.030905556 _8_ MAC  --- 0 ARP 28 [13a 8 7 806] ------- [REPLY 7/7 8/8]
s 1.030915556 _8_ MAC  --- 0 ACK 38 [0 7 0 0] 
r 1.031220182 _7_ MAC  --- 0 ACK 38 [0 7 0 0] 
s 1.031329556 _8_ MAC  --- 0 RTS 44 [5ae 7 8 0] 
r 1.031682182 _7_ MAC  --- 0 RTS 44 [5ae 7 8 0] 
s 1.031692182 _7_ MAC  --- 0 CTS 38 [474 8 0 0] 
r 1.031996807 _8_ MAC  --- 0 CTS 38 [474 8 0 0] 
s 1.032006807 _8_ MAC  --- 0 AODV 102 [13a 7 8 800] ------- [9:255 0:255 29 7] [0x4 2 [9 4] 10.000000] (REPLY)
r 1.032823433 _7_ MAC  --- 0 AODV 44 [13a 7 8 800] ------- [9:255 0:255 29 7] [0x4 2 [9 4] 10.000000] (REPLY)
s 1.032833433 _7_ MAC  --- 0 ACK 38 [0 8 0 0] 
r 1.032848433 _7_ RTR  --- 0 AODV 44 [13a 7 8 800] ------- [9:255 0:255 29 7] [0x4 2 [9 4] 10.000000] (REPLY)
f 1.032848433 _7_ RTR  --- 0 AODV 44 [13a 7 8 800] ------- [9:255 0:255 28 6] [0x4 3 [9 4] 10.000000] (REPLY)
r 1.033138059 _8_ MAC  --- 0 ACK 38 [0 8 0 0] 
s 1.033427433 _7_ MAC  --- 0 ARP 86 [0 ffffffff 7 806] ------- [REQUEST 7/7 0/6]
r 1.034115800 _4_ MAC  --- 0 ARP 28 [0 ffffffff 7 806] ------- [REQUEST 7/7 0/6]
r 1.034116059 _8_ MAC  --- 0 ARP 28 [0 ffffffff 7 806] ------- [REQUEST 7/7 0/6]
r 1.034116133 _5_ MAC  --- 0 ARP 28 [0 ffffffff 7 806] ------- [REQUEST 7/7 0/6]
r 1.034116163 _6_ MAC  --- 0 ARP 28 [0 ffffffff 7 806] ------- [REQUEST 7/7 0/6]
s 1.034691163 _6_ MAC  --- 0 RTS 44 [52e 7 6 0] 
r 1.035043894 _7_ MAC  --- 0 RTS 44 [52e 7 6 0] 
s 1.035053894 _7_ MAC  --- 0 CTS 38 [3f4 6 0 0] 
r 1.035358624 _6_ MAC  --- 0 CTS 38 [3f4 6 0 0] 
s 1.035368624 _6_ MAC  --- 0 ARP 86 [13a 7 6 806] ------- [REPLY 6/6 7/7]
r 1.036057354 _7_ MAC  --- 0 ARP 28 [13a 7 6 806] ------- [REPLY 6/6 7/7]
s 1.036067354 _7_ MAC  --- 0 ACK 38 [0 6 0 0] 
r 1.036372085 _6_ MAC  --- 0 ACK 38 [0 6 0 0] 
s 1.036641354 _7_ MAC  --- 0 RTS 44 [5ae 6 7 0] 
r 1.036994085 _6_ MAC  --- 0 RTS 44 [5ae 6 7 0] 
s 1.037004085 _6_ MAC  --- 0 CTS 38 [474 7 0 0] 
r 1.037308815 _7_ MAC  --- 0 CTS 38 [474 7 0 0] 
s 1.037318815 _7_ MAC  --- 0 AODV 102 [13a 6 7 800] ------- [9:255 0:255 28 6] [0x4 3 [9 4] 10.000000] (REPLY)
r 1.038135545 _6_ MAC  --- 0 AODV 44 [13a 6 7 800] ------- [9:255 0:255 28 6] [0x4 3 [9 4] 10.000000] (REPLY)
s 1.038145545 _6_ MAC  --- 0 ACK 38 [0 7 0 0] 
r 1.038160545 _6_ RTR  --- 0 AODV 44 [13a 6 7 800] ------- [9:255 0:255 28 6] [0x4 3 [9 4] 10.000000] (REPLY)
f 1.038160545 _6_ RTR  --- 0 AODV 44 [13a 6 7 800] ------- [9:255 0:255 27 1] [0x4 4 [9 4] 10.000000] (REPLY)
r 1.038450276 _7_ MAC  --- 0 ACK 38 [0 7 0 0] 
s 1.039079545 _6_ MAC  --- 0 ARP 86 [0 ffffffff 6 806] ------- [REQUEST 6/6 0/1]
r 1.039768036 _4_ MAC  --- 0 ARP 28 [0 ffffffff 6 806] ------- [REQUEST 6/6 0/1]
r 1.039768047 _1_ MAC  --- 0 ARP 28 [0 ffffffff 6 806] ------- [REQUEST 6/6 0/1]
r 1.039768276 _7_ MAC  --- 0 ARP 28 [0 ffffffff 6 806] ------- [REQUEST 6/6 0/1]
s 1.040163047 _1_ MAC  --- 0 RTS 44 [52e 6 1 0] 
r 1.040515549 _6_ MAC  --- 0 RTS 44 [52e 6 1 0] 
s 1.040525549 _6_ MAC  --- 0 CTS 38 [3f4 1 0 0] 
r 1.040830051 _1_ MAC  --- 0 CTS 38 [3f4 1 0 0] 
s 1.040840051 _1_ MAC  --- 0 ARP 86 [13a 6 1 806] ------- [REPLY 1/1 6/6]
r 1.041528553 _6_ MAC  --- 0 ARP 28 [13a 6 1 806] ------- [REPLY 1/1 6/6]
s 1.041538553 _6_ MAC  --- 0 ACK 38 [0 1 0 0] 
r 1.041843055 _1_ MAC  --- 0 ACK 38 [0 1 0 0] 
s 1.042392553 _6_ MAC  --- 0 RTS 44 [5ae 1 6 0] 
r 1.042745055 _1_ MAC  --- 0 RTS 44 [5ae 1 6 0] 
s 1.042755055 _1_ MAC  --- 0 CTS 38 [474 6 0 0] 
r 1.043059557 _6_ MAC  --- 0 CTS 38 [474 6 0 0] 
s 1.043069557 _6_ MAC  --- 0 AODV 102 [13a 1 6 800] ------- [9:255 0:255 27 1] [0x4 4 [9 4] 10.000000] (REPLY)
r 1.043886058 _1_ MAC  --- 0 AODV 44 [13a 1 6 800] ------- [9:255 0:255 27 1] [0x4 4 [9 4] 10.000000] (REPLY)
s 1.043896058 _1_ MAC  --- 0 ACK 38 [0 6 0 0] 
r 1.043911058 _1_ RTR  --- 0 AODV 44 [13a 1 6 800] ------- [9:255 0:255 27 1] [0x4 4 [9 4] 10.000000] (REPLY)
f 1.043911058 _1_ RTR  --- 0 AODV 44 [13a 1 6 800] ------- [9:255 0:255 26 0] [0x4 5 [9 4] 10.000000] (REPLY)
r 1.044200560 _6_ MAC  --- 0 ACK 38 [0 6 0 0] 
s 1.044430058 _1_ MAC  --- 0 ARP 86 [0 ffffffff 1 806] ------- [REQUEST 1/1 0/0]
r 1.045118560 _6_ MAC  --- 0 ARP 28 [0 ffffffff 1 806] ------- [REQUEST 1/1 0/0]
r 1.045118837 _0_ MAC  --- 0 ARP 28 [0 ffffffff 1 806] ------- [REQUEST 1/1 0/0]
s 1.045173837 _0_ MAC  --- 0 RTS 44 [52e 1 0 0] 
r 1.045526615 _1_ MAC  --- 0 RTS 44 [52e 1 0 0] 
s 1.045536615 _1_ MAC  --- 0 CTS 38 [3f4 0 0 0] 
r 1.045841393 _0_ MAC  --- 0 CTS 38 [3f4 0 0 0] 
s 1.045851393 _0_ MAC  --- 0 ARP 86 [13a 1 0 806] ------- [REPLY 0/0 1/1]
r 1.046540171 _1_ MAC  --- 0 ARP 28 [13a 1 0 806] ------- [REPLY 0/0 1/1]
s 1.046550171 _1_ MAC  --- 0 ACK 38 [0 0 0 0] 
r 1.046854949 _0_ MAC  --- 0 ACK 38 [0 0 0 0] 
s 1.047384171 _1_ MAC  --- 0 RTS 44 [5ae 0 1 0] 
r 1.047736949 _0_ MAC  --- 0 RTS 44 [5ae 0 1 0] 
s 1.047746949 _0_ MAC  --- 0 CTS 38 [474 1 0 0] 
r 1.048051727 _1_ MAC  --- 0 CTS 38 [474 1 0 0] 
s 1.048061727 _1_ MAC  --- 0 AODV 102 [13a 0 1 800] ------- [9:255 0:255 26 0] [0x4 5 [9 4] 10.000000] (REPLY)
r 1.048878506 _0_ MAC  --- 0 AODV 44 [13a 0 1 800] ------- [9:255 0:255 26 0] [0x4 5 [9 4] 10.000000] (REPLY)
s 1.048888506 _0_ MAC  --- 0 ACK 38 [0 1 0 0] 
r 1.048903506 _0_ RTR  --- 0 AODV 44 [13a 0 1 800] ------- [9:255 0:255 26 0] [0x4 5 [9 4] 10.000000] (REPLY)
s 1.048903506 _0_ RTR  --- 0 tcp 40 [0 0 0 0] ------- [0:0 9:0 30 1] [0 -1] 0 0
r 1.049193284 _1_ MAC  --- 0 ACK 38 [0 1 0 0] 
s 1.049562506 _0_ MAC  --- 0 RTS 44 [58e 1 0 0] 
r 1.049915284 _1_ MAC  --- 0 RTS 44 [58e 1 0 0] 
s 1.049925284 _1_ MAC  --- 0 CTS 38 [454 0 0 0] 
r 1.050230062 _0_ MAC  --- 0 CTS 38 [454 0 0 0] 
s 1.050240062 _0_ MAC  --- 0 tcp 98 [13a 1 0 800] ------- [0:0 9:0 30 1] [0 -1] 0 0
r 1.051024840 _1_ MAC  --- 0 tcp 40 [13a 1 0 800] ------- [0:0 9:0 30 1] [0 -1] 1 0
s 1.051034840 _1_ MAC  --- 0 ACK 38 [0 0 0 0] 
r 1.051049840 _1_ RTR  --- 0 tcp 40 [13a 1 0 800] ------- [0:0 9:0 30 1] [0 -1] 1 0
f 1.051049840 _1_ RTR  --- 0 tcp 40 [13a 1 0 800] ------- [0:0 9:0 29 6] [0 -1] 1 0
r 1.051339618 _0_ MAC  --- 0 ACK 38 [0 0 0 0] 
s 1.051608840 _1_ MAC  --- 0 RTS 44 [58e 6 1 0] 
r 1.051961342 _6_ MAC  --- 0 RTS 44 [58e 6 1 0] 
s 1.051971342 _6_ MAC  --- 0 CTS 38 [454 1 0 0] 
r 1.052275844 _1_ MAC  --- 0 CTS 38 [454 1 0 0] 
s 1.052285844 _1_ MAC  --- 0 tcp 98 [13a 6 1 800] ------- [0:0 9:0 29 6] [0 -1] 1 0
r 1.053070346 _6_ MAC  --- 0 tcp 40 [13a 6 1 800] ------- [0:0 9:0 29 6] [0 -1] 2 0
s 1.053080346 _6_ MAC  --- 0 ACK 38 [0 1 0 0] 
r 1.053095346 _6_ RTR  --- 0 tcp 40 [13a 6 1 800] ------- [0:0 9:0 29 6] [0 -1] 2 0
f 1.053095346 _6_ RTR  --- 0 tcp 40 [13a 6 1 800] ------- [0:0 9:0 28 7] [0 -1] 2 0
r 1.053384848 _1_ MAC  --- 0 ACK 38 [0 1 0 0] 
s 1.053734346 _6_ MAC  --- 0 RTS 44 [58e 7 6 0] 
r 1.054087076 _7_ MAC  --- 0 RTS 44 [58e 7 6 0] 
s 1.054097076 _7_ MAC  --- 0 CTS 38 [454 6 0 0] 
r 1.054401806 _6_ MAC  --- 0 CTS 38 [454 6 0 0] 
s 1.054411806 _6_ MAC  --- 0 tcp 98 [13a 7 6 800] ------- [0:0 9:0 28 7] [0 -1] 2 0
r 1.055196537 _7_ MAC  --- 0 tcp 40 [13a 7 6 800] ------- [0:0 9:0 28 7] [0 -1] 3 0
s 1.055206537 _7_ MAC  --- 0 ACK 38 [0 6 0 0] 
r 1.055221537 _7_ RTR  --- 0 tcp 40 [13a 7 6 800] ------- [0:0 9:0 28 7] [0 -1] 3 0
f 1.055221537 _7_ RTR  --- 0 tcp 40 [13a 7 6 800] ------- [0:0 9:0 27 8] [0 -1] 3 0
r 1.055511267 _6_ MAC  --- 0 ACK 38 [0 6 0 0] 
s 1.055800537 _7_ MAC  --- 0 RTS 44 [58e 8 7 0] 
r 1.056153162 _8_ MAC  --- 0 RTS 44 [58e 8 7 0] 
s 1.056163162 _8_ MAC  --- 0 CTS 38 [454 7 0 0] 
r 1.056467788 _7_ MAC  --- 0 CTS 38 [454 7 0 0] 
s 1.056477788 _7_ MAC  --- 0 tcp 98 [13a 8 7 800] ------- [0:0 9:0 27 8] [0 -1] 3 0
r 1.057262413 _8_ MAC  --- 0 tcp 40 [13a 8 7 800] ------- [0:0 9:0 27 8] [0 -1] 4 0
s 1.057272413 _8_ MAC  --- 0 ACK 38 [0 7 0 0] 
r 1.057287413 _8_ RTR  --- 0 tcp 40 [13a 8 7 800] ------- [0:0 9:0 27 8] [0 -1] 4 0
f 1.057287413 _8_ RTR  --- 0 tcp 40 [13a 8 7 800] ------- [0:0 9:0 26 9] [0 -1] 4 0
r 1.057577039 _7_ MAC  --- 0 ACK 38 [0 7 0 0] 
s 1.057906413 _8_ MAC  --- 0 RTS 44 [58e 9 8 0] 
r 1.058258851 _9_ MAC  --- 0 RTS 44 [58e 9 8 0] 
s 1.058268851 _9_ MAC  --- 0 CTS 38 [454 8 0 0] 
r 1.058573288 _8_ MAC  --- 0 CTS 38 [454 8 0 0] 
s 1.058583288 _8_ MAC  --- 0 tcp 98 [13a 9 8 800] ------- [0:0 9:0 26 9] [0 -1] 4 0
r 1.059367725 _9_ MAC  --- 0 tcp 40 [13a 9 8 800] ------- [0:0 9:0 26 9] [0 -1] 5 0
s 1.059377725 _9_ MAC  --- 0 ACK 38 [0 8 0 0] 
r 1.059392725 _9_ AGT  --- 0 tcp 40 [13a 9 8 800] ------- [0:0 9:0 26 9] [0 -1] 5 0
r 1.059682163 _8_ MAC  --- 0 ACK 38 [0 8 0 0] 
4.00000  0  0  9  0  ssthresh_ 0
4.00000  0  0  9  0  ssthresh_ 2
s 4.000000000 _0_ AGT  --- 1 tcp 40 [0 0 0 0] ------- [0:0 9:0 32 0] [0 -1] 0 0
r 4.000000000 _0_ RTR  --- 1 tcp 40 [0 0 0 0] ------- [0:0 9:0 32 0] [0 -1] 0 0
s 4.000000000 _0_ RTR  --- 1 tcp 40 [0 0 0 0] ------- [0:0 9:0 30 1] [0 -1] 0 0
s 4.000315000 _0_ MAC  --- 0 RTS 44 [58e 1 0 0] 
r 4.000667778 _1_ MAC  --- 0 RTS 44 [58e 1 0 0] 
s 4.000677778 _1_ MAC  --- 0 CTS 38 [454 0 0 0] 
r 4.000982556 _0_ MAC  --- 0 CTS 38 [454 0 0 0] 
s 4.000992556 _0_ MAC  --- 1 tcp 98 [13a 1 0 800] ------- [0:0 9:0 30 1] [0 -1] 0 0
r 4.001777335 _1_ MAC  --- 1 tcp 40 [13a 1 0 800] ------- [0:0 9:0 30 1] [0 -1] 1 0
s 4.001787335 _1_ MAC  --- 0 ACK 38 [0 0 0 0] 
r 4.001802335 _1_ RTR  --- 1 tcp 40 [13a 1 0 800] ------- [0:0 9:0 30 1] [0 -1] 1 0
f 4.001802335 _1_ RTR  --- 1 tcp 40 [13a 1 0 800] ------- [0:0 9:0 29 6] [0 -1] 1 0
r 4.002092113 _0_ MAC  --- 0 ACK 38 [0 0 0 0] 
s 4.002261335 _1_ MAC  --- 0 RTS 44 [58e 6 1 0] 
r 4.002613836 _6_ MAC  --- 0 RTS 44 [58e 6 1 0] 
s 4.002623836 _6_ MAC  --- 0 CTS 38 [454 1 0 0] 
r 4.002928338 _1_ MAC  --- 0 CTS 38 [454 1 0 0] 
s 4.002938338 _1_ MAC  --- 1 tcp 98 [13a 6 1 800] ------- [0:0 9:0 29 6] [0 -1] 1 0
r 4.003722840 _6_ MAC  --- 1 tcp 40 [13a 6 1 800] ------- [0:0 9:0 29 6] [0 -1] 2 0
s 4.003732840 _6_ MAC  --- 0 ACK 38 [0 1 0 0] 
r 4.003747840 _6_ RTR  --- 1 tcp 40 [13a 6 1 800] ------- [0:0 9:0 29 6] [0 -1] 2 0
f 4.003747840 _6_ RTR  --- 1 tcp 40 [13a 6 1 800] ------- [0:0 9:0 28 7] [0 -1] 2 0
r 4.004037342 _1_ MAC  --- 0 ACK 38 [0 1 0 0] 
s 4.004126840 _6_ MAC  --- 0 RTS 44 [58e 7 6 0] 
r 4.004479570 _7_ MAC  --- 0 RTS 44 [58e 7 6 0] 
s 4.004489570 _7_ MAC  --- 0 CTS 38 [454 6 0 0] 
r 4.004794301 _6_ MAC  --- 0 CTS 38 [454 6 0 0] 
s 4.004804301 _6_ MAC  --- 1 tcp 98 [13a 7 6 800] ------- [0:0 9:0 28 7] [0 -1] 2 0
r 4.005589031 _7_ MAC  --- 1 tcp 40 [13a 7 6 800] ------- [0:0 9:0 28 7] [0 -1] 3 0
s 4.005599031 _7_ MAC  --- 0 ACK 38 [0 6 0 0] 
r 4.005614031 _7_ RTR  --- 1 tcp 40 [13a 7 6 800] ------- [0:0 9:0 28 7] [0 -1] 3 0
f 4.005614031 _7_ RTR  --- 1 tcp 40 [13a 7 6 800] ------- [0:0 9:0 27 8] [0 -1] 3 0
r 4.005903761 _6_ MAC  --- 0 ACK 38 [0 6 0 0] 
s 4.006073031 _7_ MAC  --- 0 RTS 44 [58e 8 7 0] 
r 4.006425657 _8_ MAC  --- 0 RTS 44 [58e 8 7 0] 
s 4.006435657 _8_ MAC  --- 0 CTS 38 [454 7 0 0] 
r 4.006740282 _7_ MAC  --- 0 CTS 38 [454 7 0 0] 
s 4.006750282 _7_ MAC  --- 1 tcp 98 [13a 8 7 800] ------- [0:0 9:0 27 8] [0 -1] 3 0
r 4.007534908 _8_ MAC  --- 1 tcp 40 [13a 8 7 800] ------- [0:0 9:0 27 8] [0 -1] 4 0
s 4.007544908 _8_ MAC  --- 0 ACK 38 [0 7 0 0] 
r 4.007559908 _8_ RTR  --- 1 tcp 40 [13a 8 7 800] ------- [0:0 9:0 27 8] [0 -1] 4 0
f 4.007559908 _8_ RTR  --- 1 tcp 40 [13a 8 7 800] ------- [0:0 9:0 26 9] [0 -1] 4 0
r 4.007849533 _7_ MAC  --- 0 ACK 38 [0 7 0 0] 
s 4.007998908 _8_ MAC  --- 0 RTS 44 [58e 9 8 0] 
r 4.008351345 _9_ MAC  --- 0 RTS 44 [58e 9 8 0] 
s 4.008361345 _9_ MAC  --- 0 CTS 38 [454 8 0 0] 
r 4.008665782 _8_ MAC  --- 0 CTS 38 [454 8 0 0] 
s 4.008675782 _8_ MAC  --- 1 tcp 98 [13a 9 8 800] ------- [0:0 9:0 26 9] [0 -1] 4 0
r 4.009460220 _9_ MAC  --- 1 tcp 40 [13a 9 8 800] ------- [0:0 9:0 26 9] [0 -1] 5 0
s 4.009470220 _9_ MAC  --- 0 ACK 38 [0 8 0 0] 
r 4.009485220 _9_ AGT  --- 1 tcp 40 [13a 9 8 800] ------- [0:0 9:0 26 9] [0 -1] 5 0
r 4.009774657 _8_ MAC  --- 0 ACK 38 [0 8 0 0] 
10.00000 0  0  9  0  ssthresh_ 0
10.00000 0  0  9  0  ssthresh_ 2
s 10.000000000 _0_ AGT  --- 2 tcp 40 [0 0 0 0] ------- [0:0 9:0 32 0] [0 -1] 0 0
r 10.000000000 _0_ RTR  --- 2 tcp 40 [0 0 0 0] ------- [0:0 9:0 32 0] [0 -1] 0 0
s 10.000000000 _0_ RTR  --- 2 tcp 40 [0 0 0 0] ------- [0:0 9:0 30 1] [0 -1] 0 0
s 10.000275000 _0_ MAC  --- 0 RTS 44 [58e 1 0 0] 
r 10.000627778 _1_ MAC  --- 0 RTS 44 [58e 1 0 0] 
s 10.000637778 _1_ MAC  --- 0 CTS 38 [454 0 0 0] 
r 10.000942556 _0_ MAC  --- 0 CTS 38 [454 0 0 0] 
s 10.000952556 _0_ MAC  --- 2 tcp 98 [13a 1 0 800] ------- [0:0 9:0 30 1] [0 -1] 0 0
r 10.001737335 _1_ MAC  --- 2 tcp 40 [13a 1 0 800] ------- [0:0 9:0 30 1] [0 -1] 1 0
s 10.001747335 _1_ MAC  --- 0 ACK 38 [0 0 0 0] 
r 10.001762335 _1_ RTR  --- 2 tcp 40 [13a 1 0 800] ------- [0:0 9:0 30 1] [0 -1] 1 0
f 10.001762335 _1_ RTR  --- 2 tcp 40 [13a 1 0 800] ------- [0:0 9:0 29 6] [0 -1] 1 0
r 10.002052113 _0_ MAC  --- 0 ACK 38 [0 0 0 0] 
s 10.002161335 _1_ MAC  --- 0 RTS 44 [58e 6 1 0] 
r 10.002513836 _6_ MAC  --- 0 RTS 44 [58e 6 1 0] 
s 10.002523836 _6_ MAC  --- 0 CTS 38 [454 1 0 0] 
r 10.002828338 _1_ MAC  --- 0 CTS 38 [454 1 0 0] 
s 10.002838338 _1_ MAC  --- 2 tcp 98 [13a 6 1 800] ------- [0:0 9:0 29 6] [0 -1] 1 0
r 10.003622840 _6_ MAC  --- 2 tcp 40 [13a 6 1 800] ------- [0:0 9:0 29 6] [0 -1] 2 0
s 10.003632840 _6_ MAC  --- 0 ACK 38 [0 1 0 0] 
r 10.003647840 _6_ RTR  --- 2 tcp 40 [13a 6 1 800] ------- [0:0 9:0 29 6] [0 -1] 2 0
f 10.003647840 _6_ RTR  --- 2 tcp 40 [13a 6 1 800] ------- [0:0 9:0 28 7] [0 -1] 2 0
r 10.003937342 _1_ MAC  --- 0 ACK 38 [0 1 0 0] 
s 10.004586840 _6_ MAC  --- 0 RTS 44 [58e 7 6 0] 
r 10.004939570 _7_ MAC  --- 0 RTS 44 [58e 7 6 0] 
s 10.004949570 _7_ MAC  --- 0 CTS 38 [454 6 0 0] 
r 10.005254301 _6_ MAC  --- 0 CTS 38 [454 6 0 0] 
s 10.005264301 _6_ MAC  --- 2 tcp 98 [13a 7 6 800] ------- [0:0 9:0 28 7] [0 -1] 2 0
r 10.006049031 _7_ MAC  --- 2 tcp 40 [13a 7 6 800] ------- [0:0 9:0 28 7] [0 -1] 3 0
s 10.006059031 _7_ MAC  --- 0 ACK 38 [0 6 0 0] 
r 10.006074031 _7_ RTR  --- 2 tcp 40 [13a 7 6 800] ------- [0:0 9:0 28 7] [0 -1] 3 0
f 10.006074031 _7_ RTR  --- 2 tcp 40 [13a 7 6 800] ------- [0:0 9:0 27 8] [0 -1] 3 0
r 10.006363761 _6_ MAC  --- 0 ACK 38 [0 6 0 0] 
s 10.006473031 _7_ MAC  --- 0 RTS 44 [58e 8 7 0] 
r 10.006825657 _8_ MAC  --- 0 RTS 44 [58e 8 7 0] 
s 10.006835657 _8_ MAC  --- 0 CTS 38 [454 7 0 0] 
r 10.007140282 _7_ MAC  --- 0 CTS 38 [454 7 0 0] 
s 10.007150282 _7_ MAC  --- 2 tcp 98 [13a 8 7 800] ------- [0:0 9:0 27 8] [0 -1] 3 0
r 10.007934908 _8_ MAC  --- 2 tcp 40 [13a 8 7 800] ------- [0:0 9:0 27 8] [0 -1] 4 0
s 10.007944908 _8_ MAC  --- 0 ACK 38 [0 7 0 0] 
r 10.007959908 _8_ RTR  --- 2 tcp 40 [13a 8 7 800] ------- [0:0 9:0 27 8] [0 -1] 4 0
f 10.007959908 _8_ RTR  --- 2 tcp 40 [13a 8 7 800] ------- [0:0 9:0 26 9] [0 -1] 4 0
r 10.008249533 _7_ MAC  --- 0 ACK 38 [0 7 0 0] 
s 10.008418908 _8_ MAC  --- 0 RTS 44 [58e 9 8 0] 
r 10.008771345 _9_ MAC  --- 0 RTS 44 [58e 9 8 0] 
s 10.008781345 _9_ MAC  --- 0 CTS 38 [454 8 0 0] 
r 10.009085782 _8_ MAC  --- 0 CTS 38 [454 8 0 0] 
s 10.009095782 _8_ MAC  --- 2 tcp 98 [13a 9 8 800] ------- [0:0 9:0 26 9] [0 -1] 4 0
r 10.009880220 _9_ MAC  --- 2 tcp 40 [13a 9 8 800] ------- [0:0 9:0 26 9] [0 -1] 5 0
s 10.009890220 _9_ MAC  --- 0 ACK 38 [0 8 0 0] 
r 10.009905220 _9_ AGT  --- 2 tcp 40 [13a 9 8 800] ------- [0:0 9:0 26 9] [0 -1] 5 0
r 10.010194657 _8_ MAC  --- 0 ACK 38 [0 8 0 0] 
M 14.00000 2 (1424.00, 1740.00, 0.00), (1361.00, 1839.00), 10.00
M 14.00000 5 (1625.00, 1789.00, 0.00), (1733.00, 1808.00), 10.00
22.00000 0  0  9  0  ssthresh_ 0
22.00000 0  0  9  0  ssthresh_ 2
s 22.000000000 _0_ AGT  --- 3 tcp 40 [0 0 0 0] ------- [0:0 9:0 32 0] [0 -1] 0 0
r 22.000000000 _0_ RTR  --- 3 tcp 40 [0 0 0 0] ------- [0:0 9:0 32 0] [0 -1] 0 0
s 22.000000000 _0_ RTR  --- 0 AODV 48 [0 0 0 0] ------- [0:255 -1:255 7 0] [0x2 1 2 [9 5] [0 6]] (REQUEST)
s 22.000615000 _0_ MAC  --- 0 AODV 106 [0 ffffffff 0 800] ------- [0:255 -1:255 7 0] [0x2 1 2 [9 5] [0 6]] (REQUEST)
r 22.001463700 _2_ MAC  --- 0 AODV 48 [0 ffffffff 0 800] ------- [0:255 -1:255 7 0] [0x2 1 2 [9 5] [0 6]] (REQUEST)
r 22.001463778 _1_ MAC  --- 0 AODV 48 [0 ffffffff 0 800] ------- [0:255 -1:255 7 0] [0x2 1 2 [9 5] [0 6]] (REQUEST)
r 22.001488700 _2_ RTR  --- 0 AODV 48 [0 ffffffff 0 800] ------- [0:255 -1:255 7 0] [0x2 1 2 [9 5] [0 6]] (REQUEST)
r 22.001488778 _1_ RTR  --- 0 AODV 48 [0 ffffffff 0 800] ------- [0:255 -1:255 7 0] [0x2 1 2 [9 5] [0 6]] (REQUEST)
s 22.002988584 _2_ RTR  --- 0 AODV 48 [0 ffffffff 0 800] ------- [2:255 -1:255 6 0] [0x2 2 2 [9 5] [0 6]] (REQUEST)
s 22.003403584 _2_ MAC  --- 0 AODV 106 [0 ffffffff 2 800] ------- [2:255 -1:255 6 0] [0x2 2 2 [9 5] [0 6]] (REQUEST)
r 22.004252242 _3_ MAC  --- 0 AODV 48 [0 ffffffff 2 800] ------- [2:255 -1:255 6 0] [0x2 2 2 [9 5] [0 6]] (REQUEST)
r 22.004252283 _0_ MAC  --- 0 AODV 48 [0 ffffffff 2 800] ------- [2:255 -1:255 6 0] [0x2 2 2 [9 5] [0 6]] (REQUEST)
r 22.004277242 _3_ RTR  --- 0 AODV 48 [0 ffffffff 2 800] ------- [2:255 -1:255 6 0] [0x2 2 2 [9 5] [0 6]] (REQUEST)
r 22.004277283 _0_ RTR  --- 0 AODV 48 [0 ffffffff 2 800] ------- [2:255 -1:255 6 0] [0x2 2 2 [9 5] [0 6]] (REQUEST)
s 22.004278987 _3_ RTR  --- 0 AODV 48 [0 ffffffff 2 800] ------- [3:255 -1:255 5 0] [0x2 3 2 [9 5] [0 6]] (REQUEST)
s 22.004573987 _3_ MAC  --- 0 AODV 106 [0 ffffffff 3 800] ------- [3:255 -1:255 5 0] [0x2 3 2 [9 5] [0 6]] (REQUEST)
r 22.005422616 _5_ MAC  --- 0 AODV 48 [0 ffffffff 3 800] ------- [3:255 -1:255 5 0] [0x2 3 2 [9 5] [0 6]] (REQUEST)
r 22.005422645 _2_ MAC  --- 0 AODV 48 [0 ffffffff 3 800] ------- [3:255 -1:255 5 0] [0x2 3 2 [9 5] [0 6]] (REQUEST)
r 22.005447616 _5_ RTR  --- 0 AODV 48 [0 ffffffff 3 800] ------- [3:255 -1:255 5 0] [0x2 3 2 [9 5] [0 6]] (REQUEST)
r 22.005447645 _2_ RTR  --- 0 AODV 48 [0 ffffffff 3 800] ------- [3:255 -1:255 5 0] [0x2 3 2 [9 5] [0 6]] (REQUEST)
s 22.005552553 _1_ RTR  --- 0 AODV 48 [0 ffffffff 0 800] ------- [1:255 -1:255 6 0] [0x2 2 2 [9 5] [0 6]] (REQUEST)
s 22.006277363 _1_ MAC  --- 0 AODV 106 [0 ffffffff 1 800] ------- [1:255 -1:255 6 0] [0x2 2 2 [9 5] [0 6]] (REQUEST)
r 22.007125865 _6_ MAC  --- 0 AODV 48 [0 ffffffff 1 800] ------- [1:255 -1:255 6 0] [0x2 2 2 [9 5] [0 6]] (REQUEST)
r 22.007126141 _0_ MAC  --- 0 AODV 48 [0 ffffffff 1 800] ------- [1:255 -1:255 6 0] [0x2 2 2 [9 5] [0 6]] (REQUEST)
r 22.007150865 _6_ RTR  --- 0 AODV 48 [0 ffffffff 1 800] ------- [1:255 -1:255 6 0] [0x2 2 2 [9 5] [0 6]] (REQUEST)
r 22.007151141 _0_ RTR  --- 0 AODV 48 [0 ffffffff 1 800] ------- [1:255 -1:255 6 0] [0x2 2 2 [9 5] [0 6]] (REQUEST)
s 22.010803338 _6_ RTR  --- 0 AODV 48 [0 ffffffff 1 800] ------- [6:255 -1:255 5 0] [0x2 3 2 [9 5] [0 6]] (REQUEST)
s 22.011038338 _6_ MAC  --- 0 AODV 106 [0 ffffffff 6 800] ------- [6:255 -1:255 5 0] [0x2 3 2 [9 5] [0 6]] (REQUEST)
r 22.011886829 _4_ MAC  --- 0 AODV 48 [0 ffffffff 6 800] ------- [6:255 -1:255 5 0] [0x2 3 2 [9 5] [0 6]] (REQUEST)
r 22.011886840 _1_ MAC  --- 0 AODV 48 [0 ffffffff 6 800] ------- [6:255 -1:255 5 0] [0x2 3 2 [9 5] [0 6]] (REQUEST)