V -t * -v 1.0a5 -a 0
W -t * -x 1000 -y 500
A -t * -n 1 -p 0 -o 0x7fffffff -c 30 -a 1
A -t * -h 1 -m 1073741823 -s 0
n -t 0.000000 -s 0 -x 107.286347 -y 220.297515 -U 14.464325 -V 3.280746 -T 60.397147
n -t 0.000000 -s 1 -x 677.207962 -y 371.383488 -U 10.373675 -V -13.346472 -T 13.258333
n -t 0.000000 -s 4 -x 776.231192 -y 449.970965 -U -10.947789 -V 0.341643 -T 40.072849
n -t 0.000000 -s 6 -x 874.056346 -y 220.838185 -U -13.834076 -V -6.258835 -T 15.776883
n -t 0.000000 -s 7 -x 435.693360 -y 496.810817 -U 11.177357 -V -14.840510 -T 3.252777
n -t 0.000000 -s 8 -x 248.592670 -y 71.072296 -U 8.717492 -V 7.267323 -T 27.198862
n -t 0.000000 -s 9 -x 289.452711 -y 47.376920 -U 16.584313 -V 4.414039 -T 34.263686
n -t 0.000000 -s 10 -x 381.697482 -y 348.743126 -U 15.557977 -V -4.354939 -T 13.185919
n -t 0.000000 -s 12 -x 453.310080 -y 333.316285 -U -12.195211 -V 4.357508 -T 14.084402
n -t 0.000000 -s 16 -x 208.233280 -y 456.534575 -U 14.875084 -V 2.245925 -T 13.093014
n -t 0.000000 -s 17 -x 849.830233 -y 92.375024 -U -15.332852 -V -1.302327 -T 21.897949
n -t 0.000000 -s 18 -x 899.697289 -y 22.223799 -U -15.038753 -V 8.643747 -T 29.168630
n -t 0.000000 -s 20 -x 863.444541 -y 33.971760 -U -18.738110 -V -0.052099 -T 30.939993
n -t 0.000000 -s 21 -x 266.046153 -y 181.035680 -U 10.589355 -V 9.547569 -T 27.501645
n -t 0.000000 -s 22 -x 467.546462 -y 132.908255 -U -17.354134 -V -3.893867 -T 20.623574
n -t 0.000000 -s 23 -x 983.771833 -y 319.204442 -U -15.573735 -V -5.001513 -T 34.433927
n -t 0.000000 -s 24 -x 149.105846 -y 176.664362 -U 13.085703 -V -0.212587 -T 55.741014
n -t 0.000000 -s 25 -x 941.835357 -y 218.200267 -U -14.989062 -V 3.466762 -T 52.701813
n -t 0.000000 -s 26 -x 820.270942 -y 0.730637 -U 5.141945 -V 10.027955 -T 32.990946
n -t 0.000000 -s 27 -x 603.400596 -y 382.028184 -U -14.047021 -V 1.817350 -T 15.242450
n -t 0.000000 -s 28 -x 414.669812 -y 59.720244 -U 13.986434 -V 3.954716 -T 24.986256
n -t 0.000000 -s 29 -x 687.038189 -y 442.779511 -U -13.832743 -V -4.019017 -T 35.809696
n -t 0.000000 -s 31 -x 487.945864 -y 15.544219 -U -7.637055 -V 9.592487 -T 35.323720
n -t 0.000000 -s 33 -x 540.539141 -y 354.704368 -U -12.966430 -V -2.146255 -T 16.002077
n -t 0.000000 -s 36 -x 333.964452 -y 409.672422 -U 15.827833 -V -6.522127 -T 13.294648
n -t 0.000000 -s 37 -x 997.243680 -y 399.819503 -U -8.657272 -V -12.907643 -T 28.689377
n -t 0.000000 -s 38 -x 709.864287 -y 301.275566 -U -12.223280 -V 2.436511 -T 55.568270
n -t 0.000000 -s 39 -x 557.219335 -y 386.899780 -U -0.939505 -V -14.499556 -T 20.154122
n -t 0.000000 -s 40 -x 297.297735 -y 159.164948 -U 14.230228 -V 5.760288 -T 46.589004
n -t 0.000000 -s 41 -x 409.684798 -y 344.664185 -U -13.299660 -V 6.574662 -T 13.923101
n -t 0.000000 -s 42 -x 774.613599 -y 451.990935 -U -10.303028 -V -2.728849 -T 58.884911
n -t 0.000000 -s 45 -x 14.267009 -y 468.387551 -U 8.881507 -V -11.939607 -T 35.389790
n -t 0.000000 -s 46 -x 95.542687 -y 498.848910 -U 10.395535 -V -7.952102 -T 60.502041
n -t 0.000000 -s 47 -x 909.987020 -y 461.580599 -U -8.744555 -V -8.174143 -T 17.146317
n -t 0.000000 -s 48 -x 50.131132 -y 228.614308 -U 15.171499 -V -0.560318 -T 57.752042
n -t 0.000000 -s 49 -x 328.440818 -y 427.543708 -U 7.596510 -V -11.740845 -T 23.821481
n -t 0.000000 -s 50 -x 262.704570 -y 173.124083 -U 7.151748 -V 17.903348 -T 12.285336
n -t 0.000000 -s 53 -x 595.986905 -y 397.188864 -U 8.963470 -V -9.253096 -T 14.955017
n -t 0.000000 -s 55 -x 944.106775 -y 346.755680 -U -15.813320 -V -7.948429 -T 22.012975
n -t 0.000000 -s 56 -x 343.328229 -y 402.966763 -U 0.362272 -V -12.524514 -T 23.398026
n -t 0.000000 -s 57 -x 521.572621 -y 98.331739 -U 12.519392 -V 9.361189 -T 29.331013
n -t 0.000000 -s 58 -x 125.547108 -y 83.911676 -U 4.961657 -V 13.980524 -T 13.453579
n -t 0.000000 -s 59 -x 682.978428 -y 478.023282 -U -5.817488 -V -12.014860 -T 29.412752
+ -t 1.000000000 -s 0 -d -1 -p tcp -e 40 -c 2 -a 0 -i 0 -k AGT 
- -t 1.000000000 -s 0 -d -1 -p tcp -e 40 -c 2 -a 0 -i 0 -k AGT
h -t 1.000000000 -s 0 -d -1 -p tcp -e 40 -c 2 -a 0 -i 0 -k AGT
+ -t 1.001569769 -s 0 -d -1 -p DSR -e 32 -c 2 -a 0 -i 1 -k RTR 
- -t 1.001569769 -s 0 -d -1 -p DSR -e 32 -c 2 -a 0 -i 1 -k RTR
h -t 1.001569769 -s 0 -d -1 -p DSR -e 32 -c 2 -a 0 -i 1 -k RTR
+ -t 1.001944769 -s 0 -d -1 -p DSR -e 90 -c 2 -a 0 -i 1 -k MAC 
- -t 1.001944769 -s 0 -d -1 -p DSR -e 90 -c 2 -a 0 -i 1 -k MAC
h -t 1.001944769 -s 0 -d -1 -p DSR -e 90 -c 2 -a 0 -i 1 -k MAC
r -t 1.002664856 -s 3 -d -1 -p DSR -e 32 -c 2 -a 0 -i 1 -k MAC
r -t 1.002664958 -s 48 -d -1 -p DSR -e 32 -c 2 -a 0 -i 1 -k MAC
r -t 1.002664976 -s 24 -d -1 -p DSR -e 32 -c 2 -a 0 -i 1 -k MAC
r -t 1.002664990 -s 44 -d -1 -p DSR -e 32 -c 2 -a 0 -i 1 -k MAC
r -t 1.002665164 -s 13 -d -1 -p DSR -e 32 -c 2 -a 0 -i 1 -k MAC
r -t 1.002665189 -s 58 -d -1 -p DSR -e 32 -c 2 -a 0 -i 1 -k MAC
r -t 1.002665274 -s 50 -d -1 -p DSR -e 32 -c 2 -a 0 -i 1 -k MAC
r -t 1.002665297 -s 21 -d -1 -p DSR -e 32 -c 2 -a 0 -i 1 -k MAC
r -t 1.002665324 -s 5 -d -1 -p DSR -e 32 -c 2 -a 0 -i 1 -k MAC
r -t 1.002665431 -s 40 -d -1 -p DSR -e 32 -c 2 -a 0 -i 1 -k MAC
r -t 1.002665431 -s 8 -d -1 -p DSR -e 32 -c 2 -a 0 -i 1 -k MAC
r -t 1.002665559 -s 54 -d -1 -p DSR -e 32 -c 2 -a 0 -i 1 -k MAC
+ -t 1.063020319 -s 0 -d -1 -p DSR -e 32 -c 2 -a 0 -i 3 -k RTR 
- -t 1.063020319 -s 0 -d -1 -p DSR -e 32 -c 2 -a 0 -i 3 -k RTR
h -t 1.063020319 -s 0 -d -1 -p DSR -e 32 -c 2 -a 0 -i 3 -k RTR
+ -t 1.063455319 -s 0 -d -1 -p DSR -e 90 -c 2 -a 0 -i 3 -k MAC 
- -t 1.063455319 -s 0 -d -1 -p DSR -e 90 -c 2 -a 0 -i 3 -k MAC
h -t 1.063455319 -s 0 -d -1 -p DSR -e 90 -c 2 -a 0 -i 3 -k MAC
r -t 1.064175405 -s 3 -d -1 -p DSR -e 32 -c 2 -a 0 -i 3 -k MAC
r -t 1.064175507 -s 48 -d -1 -p DSR -e 32 -c 2 -a 0 -i 3 -k MAC
r -t 1.064175526 -s 24 -d -1 -p DSR -e 32 -c 2 -a 0 -i 3 -k MAC
r -t 1.064175541 -s 44 -d -1 -p DSR -e 32 -c 2 -a 0 -i 3 -k MAC
r -t 1.064175717 -s 13 -d -1 -p DSR -e 32 -c 2 -a 0 -i 3 -k MAC
r -t 1.064175737 -s 58 -d -1 -p DSR -e 32 -c 2 -a 0 -i 3 -k MAC
r -t 1.064175822 -s 50 -d -1 -p DSR -e 32 -c 2 -a 0 -i 3 -k MAC
r -t 1.064175846 -s 21 -d -1 -p DSR -e 32 -c 2 -a 0 -i 3 -k MAC
r -t 1.064175871 -s 5 -d -1 -p DSR -e 32 -c 2 -a 0 -i 3 -k MAC
r -t 1.064175980 -s 8 -d -1 -p DSR -e 32 -c 2 -a 0 -i 3 -k MAC
r -t 1.064175981 -s 40 -d -1 -p DSR -e 32 -c 2 -a 0 -i 3 -k MAC
r -t 1.064176106 -s 54 -d -1 -p DSR -e 32 -c 2 -a 0 -i 3 -k MAC
+ -t 1.064923502 -s 44 -d -1 -p DSR -e 48 -c 2 -a 0 -i 3 -k RTR 
- -t 1.064923502 -s 44 -d -1 -p DSR -e 48 -c 2 -a 0 -i 3 -k RTR
h -t 1.064923502 -s 44 -d -1 -p DSR -e 48 -c 2 -a 0 -i 3 -k RTR
+ -t 1.065318502 -s 44 -d -1 -p DSR -e 106 -c 2 -a 0 -i 3 -k MAC 
- -t 1.065318502 -s 44 -d -1 -p DSR -e 106 -c 2 -a 0 -i 3 -k MAC
h -t 1.065318502 -s 44 -d -1 -p DSR -e 106 -c 2 -a 0 -i 3 -k MAC
+ -t 1.065355243 -s 58 -d -1 -p DSR -e 48 -c 2 -a 0 -i 3 -k RTR 
- -t 1.065355243 -s 58 -d -1 -p DSR -e 48 -c 2 -a 0 -i 3 -k RTR
h -t 1.065355243 -s 58 -d -1 -p DSR -e 48 -c 2 -a 0 -i 3 -k RTR
r -t 1.066166649 -s 3 -d -1 -p DSR -e 48 -c 2 -a 0 -i 3 -k MAC
r -t 1.066166692 -s 48 -d -1 -p DSR -e 48 -c 2 -a 0 -i 3 -k MAC
r -t 1.066166724 -s 0 -d -1 -p DSR -e 48 -c 2 -a 0 -i 3 -k MAC
r -t 1.066166930 -s 24 -d -1 -p DSR -e 48 -c 2 -a 0 -i 3 -k MAC
r -t 1.066166958 -s 13 -d -1 -p DSR -e 48 -c 2 -a 0 -i 3 -k MAC
r -t 1.066167123 -s 45 -d -1 -p DSR -e 48 -c 2 -a 0 -i 3 -k MAC
r -t 1.066167125 -s 58 -d -1 -p DSR -e 48 -c 2 -a 0 -i 3 -k MAC
r -t 1.066167177 -s 50 -d -1 -p DSR -e 48 -c 2 -a 0 -i 3 -k MAC
r -t 1.066167200 -s 21 -d -1 -p DSR -e 48 -c 2 -a 0 -i 3 -k MAC
r -t 1.066167202 -s 5 -d -1 -p DSR -e 48 -c 2 -a 0 -i 3 -k MAC
r -t 1.066167204 -s 46 -d -1 -p DSR -e 48 -c 2 -a 0 -i 3 -k MAC
r -t 1.066167249 -s 16 -d -1 -p DSR -e 48 -c 2 -a 0 -i 3 -k MAC
+ -t 1.066417125 -s 58 -d -1 -p DSR -e 106 -c 2 -a 0 -i 3 -k MAC 
- -t 1.066417125 -s 58 -d -1 -p DSR -e 106 -c 2 -a 0 -i 3 -k MAC
h -t 1.066417125 -s 58 -d -1 -p DSR -e 106 -c 2 -a 0 -i 3 -k MAC
+ -t 1.066550051 -s 8 -d -1 -p DSR -e 48 -c 2 -a 0 -i 3 -k RTR 
- -t 1.066550051 -s 8 -d -1 -p DSR -e 48 -c 2 -a 0 -i 3 -k RTR
h -t 1.066550051 -s 8 -d -1 -p DSR -e 48 -c 2 -a 0 -i 3 -k RTR
r -t 1.067265405 -s 24 -d -1 -p DSR -e 48 -c 2 -a 0 -i 3 -k MAC
r -t 1.067265542 -s 0 -d -1 -p DSR -e 48 -c 2 -a 0 -i 3 -k MAC
r -t 1.067265545 -s 13 -d -1 -p DSR -e 48 -c 2 -a 0 -i 3 -k MAC
r -t 1.067265553 -s 8 -d -1 -p DSR -e 48 -c 2 -a 0 -i 3 -k MAC
r -t 1.067265606 -s 48 -d -1 -p DSR -e 48 -c 2 -a 0 -i 3 -k MAC
r -t 1.067265628 -s 3 -d -1 -p DSR -e 48 -c 2 -a 0 -i 3 -k MAC
r -t 1.067265684 -s 50 -d -1 -p DSR -e 48 -c 2 -a 0 -i 3 -k MAC
r -t 1.067265702 -s 21 -d -1 -p DSR -e 48 -c 2 -a 0 -i 3 -k MAC
r -t 1.067265732 -s 9 -d -1 -p DSR -e 48 -c 2 -a 0 -i 3 -k MAC
r -t 1.067265747 -s 44 -d -1 -p DSR -e 48 -c 2 -a 0 -i 3 -k MAC
r -t 1.067265769 -s 40 -d -1 -p DSR -e 48 -c 2 -a 0 -i 3 -k MAC
r -t 1.067265780 -s 5 -d -1 -p DSR -e 48 -c 2 -a 0 -i 3 -k MAC
r -t 1.067265797 -s 32 -d -1 -p DSR -e 48 -c 2 -a 0 -i 3 -k MAC
+ -t 1.067675553 -s 8 -d -1 -p DSR -e 106 -c 2 -a 0 -i 3 -k MAC 
- -t 1.067675553 -s 8 -d -1 -p DSR -e 106 -c 2 -a 0 -i 3 -k MAC
h -t 1.067675553 -s 8 -d -1 -p DSR -e 106 -c 2 -a 0 -i 3 -k MAC
r -t 1.068523740 -s 9 -d -1 -p DSR -e 48 -c 2 -a 0 -i 3 -k MAC
r -t 1.068523860 -s 32 -d -1 -p DSR -e 48 -c 2 -a 0 -i 3 -k MAC
r -t 1.068523894 -s 40 -d -1 -p DSR -e 48 -c 2 -a 0 -i 3 -k MAC
r -t 1.068523933 -s 21 -d -1 -p DSR -e 48 -c 2 -a 0 -i 3 -k MAC
r -t 1.068523934 -s 50 -d -1 -p DSR -e 48 -c 2 -a 0 -i 3 -k MAC
r -t 1.068523982 -s 58 -d -1 -p DSR -e 48 -c 2 -a 0 -i 3 -k MAC
r -t 1.068524007 -s 24 -d -1 -p DSR -e 48 -c 2 -a 0 -i 3 -k MAC
r -t 1.068524024 -s 5 -d -1 -p DSR -e 48 -c 2 -a 0 -i 3 -k MAC
r -t 1.068524128 -s 28 -d -1 -p DSR -e 48 -c 2 -a 0 -i 3 -k MAC
r -t 1.068524212 -s 22 -d -1 -p DSR -e 48 -c 2 -a 0 -i 3 -k MAC
r -t 1.068524214 -s 0 -d -1 -p DSR -e 48 -c 2 -a 0 -i 3 -k MAC
r -t 1.068524286 -s 3 -d -1 -p DSR -e 48 -c 2 -a 0 -i 3 -k MAC
r -t 1.068524297 -s 54 -d -1 -p DSR -e 48 -c 2 -a 0 -i 3 -k MAC
r -t 1.068524314 -s 31 -d -1 -p DSR -e 48 -c 2 -a 0 -i 3 -k MAC
r -t 1.068524363 -s 48 -d -1 -p DSR -e 48 -c 2 -a 0 -i 3 -k MAC
+ -t 1.068780450 -s 40 -d -1 -p DSR -e 48 -c 2 -a 0 -i 3 -k RTR 
- -t 1.068780450 -s 40 -d -1 -p DSR -e 48 -c 2 -a 0 -i 3 -k RTR
h -t 1.068780450 -s 40 -d -1 -p DSR -e 48 -c 2 -a 0 -i 3 -k RTR
+ -t 1.069175450 -s 40 -d -1 -p DSR -e 106 -c 2 -a 0 -i 3 -k MAC 
- -t 1.069175450 -s 40 -d -1 -p DSR -e 106 -c 2 -a 0 -i 3 -k MAC
h -t 1.069175450 -s 40 -d -1 -p DSR -e 106 -c 2 -a 0 -i 3 -k MAC
+ -t 1.069307882 -s 31 -d -1 -p DSR -e 68 -c 2 -a 0 -i 3 -k RTR 
- -t 1.069307882 -s 31 -d -1 -p DSR -e 68 -c 2 -a 0 -i 3 -k RTR
h -t 1.069307882 -s 31 -d -1 -p DSR -e 68 -c 2 -a 0 -i 3 -k RTR
+ -t 1.069336896 -s 3 -d -1 -p DSR -e 48 -c 2 -a 0 -i 3 -k RTR 
- -t 1.069336896 -s 3 -d -1 -p DSR -e 48 -c 2 -a 0 -i 3 -k RTR
h -t 1.069336896 -s 3 -d -1 -p DSR -e 48 -c 2 -a 0 -i 3 -k RTR
+ -t 1.069393569 -s 5 -d -1 -p DSR -e 48 -c 2 -a 0 -i 3 -k RTR 
- -t 1.069393569 -s 5 -d -1 -p DSR -e 48 -c 2 -a 0 -i 3 -k RTR
h -t 1.069393569 -s 5 -d -1 -p DSR -e 48 -c 2 -a 0 -i 3 -k RTR
+ -t 1.069736002 -s 54 -d -1 -p DSR -e 48 -c 2 -a 0 -i 3 -k RTR 
- -t 1.069736002 -s 54 -d -1 -p DSR -e 48 -c 2 -a 0 -i 3 -k RTR
h -t 1.069736002 -s 54 -d -1 -p DSR -e 48 -c 2 -a 0 -i 3 -k RTR
r -t 1.070023596 -s 21 -d -1 -p DSR -e 48 -c 2 -a 0 -i 3 -k MAC
r -t 1.070023617 -s 50 -d -1 -p DSR -e 48 -c 2 -a 0 -i 3 -k MAC
r -t 1.070023640 -s 5 -d -1 -p DSR -e 48 -c 2 -a 0 -i 3 -k MAC
r -t 1.070023791 -s 8 -d -1 -p DSR -e 48 -c 2 -a 0 -i 3 -k MAC
r -t 1.070023828 -s 9 -d -1 -p DSR -e 48 -c 2 -a 0 -i 3 -k MAC
r -t 1.070023859 -s 54 -d -1 -p DSR -e 48 -c 2 -a 0 -i 3 -k MAC
r -t 1.070023921 -s 22 -d -1 -p DSR -e 48 -c 2 -a 0 -i 3 -k MAC
r -t 1.070023950 -s 24 -d -1 -p DSR -e 48 -c 2 -a 0 -i 3 -k MAC
r -t 1.070023967 -s 28 -d -1 -p DSR -e 48 -c 2 -a 0 -i 3 -k MAC
r -t 1.070023997 -s 32 -d -1 -p DSR -e 48 -c 2 -a 0 -i 3 -k MAC
r -t 1.070024095 -s 58 -d -1 -p DSR -e 48 -c 2 -a 0 -i 3 -k MAC
r -t 1.070024111 -s 10 -d -1 -p DSR -e 48 -c 2 -a 0 -i 3 -k MAC
r -t 1.070024112 -s 0 -d -1 -p DSR -e 48 -c 2 -a 0 -i 3 -k MAC
r -t 1.070024130 -s 41 -d -1 -p DSR -e 48 -c 2 -a 0 -i 3 -k MAC
r -t 1.070024153 -s 3 -d -1 -p DSR -e 48 -c 2 -a 0 -i 3 -k MAC
r -t 1.070024166 -s 12 -d -1 -p DSR -e 48 -c 2 -a 0 -i 3 -k MAC
r -t 1.070024176 -s 31 -d -1 -p DSR -e 48 -c 2 -a 0 -i 3 -k MAC
r -t 1.070024205 -s 56 -d -1 -p DSR -e 48 -c 2 -a 0 -i 3 -k MAC
r -t 1.070024216 -s 57 -d -1 -p DSR -e 48 -c 2 -a 0 -i 3 -k MAC
r -t 1.070024252 -s 36 -d -1 -p DSR -e 48 -c 2 -a 0 -i 3 -k MAC
+ -t 1.070074153 -s 3 -d -1 -p DSR -e 106 -c 2 -a 0 -i 3 -k MAC 
- -t 1.070074153 -s 3 -d -1 -p DSR -e 106 -c 2 -a 0 -i 3 -k MAC
h -t 1.070074153 -s 3 -d -1 -p DSR -e 106 -c 2 -a 0 -i 3 -k MAC
+ -t 1.070786957 -s 12 -d -1 -p DSR -e 68 -c 2 -a 0 -i 3 -k RTR 
- -t 1.070786957 -s 12 -d -1 -p DSR -e 68 -c 2 -a 0 -i 3 -k RTR
h -t 1.070786957 -s 12 -d -1 -p DSR -e 68 -c 2 -a 0 -i 3 -k RTR
r -t 1.070922240 -s 0 -d -1 -p DSR -e 48 -c 2 -a 0 -i 3 -k MAC
r -t 1.070922300 -s 44 -d -1 -p DSR -e 48 -c 2 -a 0 -i 3 -k MAC
r -t 1.070922343 -s 48 -d -1 -p DSR -e 48 -c 2 -a 0 -i 3 -k MAC
r -t 1.070922437 -s 24 -d -1 -p DSR -e 48 -c 2 -a 0 -i 3 -k MAC
r -t 1.070922593 -s 13 -d -1 -p DSR -e 48 -c 2 -a 0 -i 3 -k MAC
r -t 1.070922657 -s 58 -d -1 -p DSR -e 48 -c 2 -a 0 -i 3 -k MAC
r -t 1.070922692 -s 50 -d -1 -p DSR -e 48 -c 2 -a 0 -i 3 -k MAC
r -t 1.070922715 -s 21 -d -1 -p DSR -e 48 -c 2 -a 0 -i 3 -k MAC
r -t 1.070922727 -s 5 -d -1 -p DSR -e 48 -c 2 -a 0 -i 3 -k MAC
r -t 1.070922856 -s 40 -d -1 -p DSR -e 48 -c 2 -a 0 -i 3 -k MAC
r -t 1.070922886 -s 8 -d -1 -p DSR -e 48 -c 2 -a 0 -i 3 -k MAC
r -t 1.070922910 -s 45 -d -1 -p DSR -e 48 -c 2 -a 0 -i 3 -k MAC
r -t 1.070922934 -s 16 -d -1 -p DSR -e 48 -c 2 -a 0 -i 3 -k MAC
r -t 1.070922936 -s 54 -d -1 -p DSR -e 48 -c 2 -a 0 -i 3 -k MAC
r -t 1.070922957 -s 46 -d -1 -p DSR -e 48 -c 2 -a 0 -i 3 -k MAC
+ -t 1.071001260 -s 48 -d -1 -p DSR -e 48 -c 2 -a 0 -i 3 -k RTR 
- -t 1.071001260 -s 48 -d -1 -p DSR -e 48 -c 2 -a 0 -i 3 -k RTR
h -t 1.071001260 -s 48 -d -1 -p DSR -e 48 -c 2 -a 0 -i 3 -k RTR
+ -t 1.071416260 -s 48 -d -1 -p DSR -e 106 -c 2 -a 0 -i 3 -k MAC 
- -t 1.071416260 -s 48 -d -1 -p DSR -e 106 -c 2 -a 0 -i 3 -k MAC
h -t 1.071416260 -s 48 -d -1 -p DSR -e 106 -c 2 -a 0 -i 3 -k MAC
+ -t 1.071902241 -s 46 -d -1 -p DSR -e 68 -c 2 -a 0 -i 3 -k RTR 
- -t 1.071902241 -s 46 -d -1 -p DSR -e 68 -c 2 -a 0 -i 3 -k RTR
h -t 1.071902241 -s 46 -d -1 -p DSR -e 68 -c 2 -a 0 -i 3 -k RTR
+ -t 1.072049048 -s 22 -d -1 -p DSR -e 68 -c 2 -a 0 -i 3 -k RTR 
- -t 1.072049048 -s 22 -d -1 -p DSR -e 68 -c 2 -a 0 -i 3 -k RTR
h -t 1.072049048 -s 22 -d -1 -p DSR -e 68 -c 2 -a 0 -i 3 -k RTR
r -t 1.072264449 -s 0 -d -1 -p DSR -e 48 -c 2 -a 0 -i 3 -k MAC
r -t 1.072264450 -s 44 -d -1 -p DSR -e 48 -c 2 -a 0 -i 3 -k MAC
r -t 1.072264450 -s 3 -d -1 -p DSR -e 48 -c 2 -a 0 -i 3 -k MAC
r -t 1.072264529 -s 13 -d -1 -p DSR -e 48 -c 2 -a 0 -i 3 -k MAC
r -t 1.072264626 -s 24 -d -1 -p DSR -e 48 -c 2 -a 0 -i 3 -k MAC
r -t 1.072264741 -s 58 -d -1 -p DSR -e 48 -c 2 -a 0 -i 3 -k MAC
r -t 1.072264951 -s 50 -d -1 -p DSR -e 48 -c 2 -a 0 -i 3 -k MAC
r -t 1.072264974 -s 21 -d -1 -p DSR -e 48 -c 2 -a 0 -i 3 -k MAC
r -t 1.072265001 -s 5 -d -1 -p DSR -e 48 -c 2 -a 0 -i 3 -k MAC
r -t 1.072265032 -s 45 -d -1 -p DSR -e 48 -c 2 -a 0 -i 3 -k MAC
r -t 1.072265069 -s 8 -d -1 -p DSR -e 48 -c 2 -a 0 -i 3 -k MAC
+ -t 1.072335001 -s 5 -d -1 -p DSR -e 106 -c 2 -a 0 -i 3 -k MAC 
- -t 1.072335001 -s 5 -d -1 -p DSR -e 106 -c 2 -a 0 -i 3 -k MAC
h -t 1.072335001 -s 5 -d -1 -p DSR -e 106 -c 2 -a 0 -i 3 -k MAC
+ -t 1.072743356 -s 13 -d -1 -p DSR -e 48 -c 2 -a 0 -i 3 -k RTR 
- -t 1.072743356 -s 13 -d -1 -p DSR -e 48 -c 2 -a 0 -i 3 -k RTR
h -t 1.072743356 -s 13 -d -1 -p DSR -e 48 -c 2 -a 0 -i 3 -k RTR
+ -t 1.072772598 -s 24 -d -1 -p DSR -e 48 -c 2 -a 0 -i 3 -k RTR 
- -t 1.072772598 -s 24 -d -1 -p DSR -e 48 -c 2 -a 0 -i 3 -k RTR
h -t 1.072772598 -s 24 -d -1 -p DSR -e 48 -c 2 -a 0 -i 3 -k RTR
+ -t 1.072872894 -s 50 -d -1 -p DSR -e 48 -c 2 -a 0 -i 3 -k RTR 
- -t 1.072872894 -s 50 -d -1 -p DSR -e 48 -c 2 -a 0 -i 3 -k RTR
h -t 1.072872894 -s 50 -d -1 -p DSR -e 48 -c 2 -a 0 -i 3 -k RTR
r -t 1.073183093 -s 21 -d -1 -p DSR -e 48 -c 2 -a 0 -i 3 -k MAC
r -t 1.073183102 -s 50 -d -1 -p DSR -e 48 -c 2 -a 0 -i 3 -k MAC
r -t 1.073183190 -s 40 -d -1 -p DSR -e 48 -c 2 -a 0 -i 3 -k MAC
r -t 1.073183303 -s 54 -d -1 -p DSR -e 48 -c 2 -a 0 -i 3 -k MAC
r -t 1.073183439 -s 24 -d -1 -p DSR -e 48 -c 2 -a 0 -i 3 -k MAC
r -t 1.073183471 -s 8 -d -1 -p DSR -e 48 -c 2 -a 0 -i 3 -k MAC
r -t 1.073183553 -s 0 -d -1 -p DSR -e 48 -c 2 -a 0 -i 3 -k MAC
r -t 1.073183553 -s 9 -d -1 -p DSR -e 48 -c 2 -a 0 -i 3 -k MAC
r -t 1.073183562 -s 10 -d -1 -p DSR -e 48 -c 2 -a 0 -i 3 -k MAC
r -t 1.073183575 -s 3 -d -1 -p DSR -e 48 -c 2 -a 0 -i 3 -k MAC
r -t 1.073183575 -s 41 -d -1 -p DSR -e 48 -c 2 -a 0 -i 3 -k MAC
r -t 1.073183606 -s 56 -d -1 -p DSR -e 48 -c 2 -a 0 -i 3 -k MAC
r -t 1.073183611 -s 22 -d -1 -p DSR -e 48 -c 2 -a 0 -i 3 -k MAC
r -t 1.073183649 -s 12 -d -1 -p DSR -e 48 -c 2 -a 0 -i 3 -k MAC
r -t 1.073183655 -s 36 -d -1 -p DSR -e 48 -c 2 -a 0 -i 3 -k MAC
r -t 1.073183656 -s 58 -d -1 -p DSR -e 48 -c 2 -a 0 -i 3 -k MAC
r -t 1.073183681 -s 49 -d -1 -p DSR -e 48 -c 2 -a 0 -i 3 -k MAC
r -t 1.073183695 -s 28 -d -1 -p DSR -e 48 -c 2 -a 0 -i 3 -k MAC
r -t 1.073183701 -s 44 -d -1 -p DSR -e 48 -c 2 -a 0 -i 3 -k MAC
r -t 1.073183722 -s 32 -d -1 -p DSR -e 48 -c 2 -a 0 -i 3 -k MAC
r -t 1.073183741 -s 48 -d -1 -p DSR -e 48 -c 2 -a 0 -i 3 -k MAC
+ -t 1.073333303 -s 54 -d -1 -p DSR -e 106 -c 2 -a 0 -i 3 -k MAC 
- -t 1.073333303 -s 54 -d -1 -p DSR -e 106 -c 2 -a 0 -i 3 -k MAC
h -t 1.073333303 -s 54 -d -1 -p DSR -e 106 -c 2 -a 0 -i 3 -k MAC
+ -t 1.073724379 -s 21 -d -1 -p DSR -e 48 -c 2 -a 0 -i 3 -k RTR 
- -t 1.073724379 -s 21 -d -1 -p DSR -e 48 -c 2 -a 0 -i 3 -k RTR
h -t 1.073724379 -s 21 -d -1 -p DSR -e 48 -c 2 -a 0 -i 3 -k RTR
+ -t 1.073767917 -s 16 -d -1 -p DSR -e 68 -c 2 -a 0 -i 3 -k RTR 
- -t 1.073767917 -s 16 -d -1 -p DSR -e 68 -c 2 -a 0 -i 3 -k RTR
h -t 1.073767917 -s 16 -d -1 -p DSR -e 68 -c 2 -a 0 -i 3 -k RTR
+ -t 1.073916376 -s 9 -d -1 -p DSR -e 68 -c 2 -a 0 -i 3 -k RTR 
- -t 1.073916376 -s 9 -d -1 -p DSR -e 68 -c 2 -a 0 -i 3 -k RTR
h -t 1.073916376 -s 9 -d -1 -p DSR -e 68 -c 2 -a 0 -i 3 -k RTR
+ -t 1.073944610 -s 57 -d -1 -p DSR -e 68 -c 2 -a 0 -i 3 -k RTR 
- -t 1.073944610 -s 57 -d -1 -p DSR -e 68 -c 2 -a 0 -i 3 -k RTR
h -t 1.073944610 -s 57 -d -1 -p DSR -e 68 -c 2 -a 0 -i 3 -k RTR
r -t 1.074181563 -s 10 -d -1 -p DSR -e 48 -c 2 -a 0 -i 3 -k MAC
r -t 1.074181579 -s 41 -d -1 -p DSR -e 48 -c 2 -a 0 -i 3 -k MAC
r -t 1.074181604 -s 5 -d -1 -p DSR -e 48 -c 2 -a 0 -i 3 -k MAC
r -t 1.074181653 -s 12 -d -1 -p DSR -e 48 -c 2 -a 0 -i 3 -k MAC
r -t 1.074181664 -s 56 -d -1 -p DSR -e 48 -c 2 -a 0 -i 3 -k MAC
r -t 1.074181692 -s 21 -d -1 -p DSR -e 48 -c 2 -a 0 -i 3 -k MAC
r -t 1.074181705 -s 50 -d -1 -p DSR -e 48 -c 2 -a 0 -i 3 -k MAC
r -t 1.074181707 -s 36 -d -1 -p DSR -e 48 -c 2 -a 0 -i 3 -k MAC
r -t 1.074181711 -s 40 -d -1 -p DSR -e 48 -c 2 -a 0 -i 3 -k MAC
r -t 1.074181750 -s 49 -d -1 -p DSR -e 48 -c 2 -a 0 -i 3 -k MAC
r -t 1.074181906 -s 22 -d -1 -p DSR -e 48 -c 2 -a 0 -i 3 -k MAC
r -t 1.074181932 -s 33 -d -1 -p DSR -e 48 -c 2 -a 0 -i 3 -k MAC
r -t 1.074181976 -s 19 -d -1 -p DSR -e 48 -c 2 -a 0 -i 3 -k MAC
r -t 1.074181996 -s 2 -d -1 -p DSR -e 48 -c 2 -a 0 -i 3 -k MAC
r -t 1.074182022 -s 24 -d -1 -p DSR -e 48 -c 2 -a 0 -i 3 -k MAC
r -t 1.074182031 -s 16 -d -1 -p DSR -e 48 -c 2 -a 0 -i 3 -k MAC
r -t 1.074182040 -s 7 -d -1 -p DSR -e 48 -c 2 -a 0 -i 3 -k MAC
r -t 1.074182046 -s 8 -d -1 -p DSR -e 48 -c 2 -a 0 -i 3 -k MAC
r -t 1.074182047 -s 39 -d -1 -p DSR -e 48 -c 2 -a 0 -i 3 -k MAC
r -t 1.074182073 -s 28 -d -1 -p DSR -e 48 -c 2 -a 0 -i 3 -k MAC
r -t 1.074182081 -s 9 -d -1 -p DSR -e 48 -c 2 -a 0 -i 3 -k MAC
r -t 1.074182085 -s 3 -d -1 -p DSR -e 48 -c 2 -a 0 -i 3 -k MAC
r -t 1.074182089 -s 0 -d -1 -p DSR -e 48 -c 2 -a 0 -i 3 -k MAC
+ -t 1.074312031 -s 16 -d -1 -p DSR -e 126 -c 2 -a 0 -i 3 -k MAC 
- -t 1.074312031 -s 16 -d -1 -p DSR -e 126 -c 2 -a 0 -i 3 -k MAC
h -t 1.074312031 -s 16 -d -1 -p DSR -e 126 -c 2 -a 0 -i 3 -k MAC
+ -t 1.075196759 -s 33 -d -1 -p DSR -e 68 -c 2 -a 0 -i 3 -k RTR 
- -t 1.075196759 -s 33 -d -1 -p DSR -e 68 -c 2 -a 0 -i 3 -k RTR
h -t 1.075196759 -s 33 -d -1 -p DSR -e 68 -c 2 -a 0 -i 3 -k RTR
+ -t 1.075268029 -s 56 -d -1 -p DSR -e 68 -c 2 -a 0 -i 3 -k RTR 
- -t 1.075268029 -s 56 -d -1 -p DSR -e 68 -c 2 -a 0 -i 3 -k RTR
h -t 1.075268029 -s 56 -d -1 -p DSR -e 68 -c 2 -a 0 -i 3 -k RTR
r -t 1.075320433 -s 49 -d -1 -p DSR -e 68 -c 2 -a 0 -i 3 -k MAC
r -t 1.075320436 -s 46 -d -1 -p DSR -e 68 -c 2 -a 0 -i 3 -k MAC
r -t 1.075320492 -s 56 -d -1 -p DSR -e 68 -c 2 -a 0 -i 3 -k MAC
r -t 1.075320493 -s 36 -d -1 -p DSR -e 68 -c 2 -a 0 -i 3 -k MAC
r -t 1.075320699 -s 45 -d -1 -p DSR -e 68 -c 2 -a 0 -i 3 -k MAC
r -t 1.075320704 -s 41 -d -1 -p DSR -e 68 -c 2 -a 0 -i 3 -k MAC
r -t 1.075320727 -s 10 -d -1 -p DSR -e 68 -c 2 -a 0 -i 3 -k MAC
r -t 1.075320759 -s 54 -d -1 -p DSR -e 68 -c 2 -a 0 -i 3 -k MAC
r -t 1.075320779 -s 44 -d -1 -p DSR -e 68 -c 2 -a 0 -i 3 -k MAC
r -t 1.075320780 -s 7 -d -1 -p DSR -e 68 -c 2 -a 0 -i 3 -k MAC
r -t 1.075320812 -s 3 -d -1 -p DSR -e 68 -c 2 -a 0 -i 3 -k MAC
r -t 1.075320856 -s 12 -d -1 -p DSR -e 68 -c 2 -a 0 -i 3 -k MAC
+ -t 1.075379265 -s 45 -d -1 -p DSR -e 68 -c 2 -a 0 -i 3 -k RTR 
- -t 1.075379265 -s 45 -d -1 -p DSR -e 68 -c 2 -a 0 -i 3 -k RTR
h -t 1.075379265 -s 45 -d -1 -p DSR -e 68 -c 2 -a 0 -i 3 -k RTR
+ -t 1.075630492 -s 56 -d -1 -p DSR -e 126 -c 2 -a 0 -i 3 -k MAC 
- -t 1.075630492 -s 56 -d -1 -p DSR -e 126 -c 2 -a 0 -i 3 -k MAC
h -t 1.075630492 -s 56 -d -1 -p DSR -e 126 -c 2 -a 0 -i 3 -k MAC
+ -t 1.075630856 -s 12 -d -1 -p DSR -e 126 -c 2 -a 0 -i 3 -k MAC 
- -t 1.075630856 -s 12 -d -1 -p DSR -e 126 -c 2 -a 0 -i 3 -k MAC
h -t 1.075630856 -s 12 -d -1 -p DSR -e 126 -c 2 -a 0 -i 3 -k MAC
d -t 1.075630997 -s 10 -d -1 -p DSR -e 126 -c 2 -a 0 -i 3 -k MAC
d -t 1.075631012 -s 41 -d -1 -p DSR -e 126 -c 2 -a 0 -i 3 -k MAC
d -t 1.075631148 -s 33 -d -1 -p DSR -e 126 -c 2 -a 0 -i 3 -k MAC
d -t 1.075631188 -s 19 -d -1 -p DSR -e 126 -c 2 -a 0 -i 3 -k MAC
d -t 1.075631200 -s 2 -d -1 -p DSR -e 126 -c 2 -a 0 -i 3 -k MAC
d -t 1.075631206 -s 54 -d -1 -p DSR -e 126 -c 2 -a 0 -i 3 -k MAC
d -t 1.075631258 -s 39 -d -1 -p DSR -e 126 -c 2 -a 0 -i 3 -k MAC
d -t 1.075631333 -s 7 -d -1 -p DSR -e 126 -c 2 -a 0 -i 3 -k MAC
d -t 1.075631373 -s 27 -d -1 -p DSR -e 126 -c 2 -a 0 -i 3 -k MAC
d -t 1.075631504 -s 5 -d -1 -p DSR -e 126 -c 2 -a 0 -i 3 -k MAC
d -t 1.075631572 -s 40 -d -1 -p DSR -e 126 -c 2 -a 0 -i 3 -k MAC
d -t 1.075631587 -s 21 -d -1 -p DSR -e 126 -c 2 -a 0 -i 3 -k MAC
d -t 1.075631602 -s 50 -d -1 -p DSR -e 126 -c 2 -a 0 -i 3 -k MAC
+ -t 1.076246698 -s 49 -d -1 -p DSR -e 68 -c 2 -a 0 -i 3 -k RTR 
- -t 1.076246698 -s 49 -d -1 -p DSR -e 68 -c 2 -a 0 -i 3 -k RTR
h -t 1.076246698 -s 49 -d -1 -p DSR -e 68 -c 2 -a 0 -i 3 -k RTR
r -t 1.076638542 -s 36 -d -1 -p DSR -e 68 -c 2 -a 0 -i 3 -k MAC
r -t 1.076638580 -s 49 -d -1 -p DSR -e 68 -c 2 -a 0 -i 3 -k MAC
r -t 1.076638952 -s 16 -d -1 -p DSR -e 68 -c 2 -a 0 -i 3 -k MAC
d -t 1.076638997 -s 10 -d -1 -p DSR -e 126 -c 2 -a 0 -i 3 -k MAC
d -t 1.076639012 -s 41 -d -1 -p DSR -e 126 -c 2 -a 0 -i 3 -k MAC
d -t 1.076639148 -s 33 -d -1 -p DSR -e 126 -c 2 -a 0 -i 3 -k MAC
d -t 1.076639188 -s 19 -d -1 -p DSR -e 126 -c 2 -a 0 -i 3 -k MAC
d -t 1.076639200 -s 2 -d -1 -p DSR -e 126 -c 2 -a 0 -i 3 -k MAC
d -t 1.076639206 -s 54 -d -1 -p DSR -e 126 -c 2 -a 0 -i 3 -k MAC
d -t 1.076639258 -s 39 -d -1 -p DSR -e 126 -c 2 -a 0 -i 3 -k MAC
d -t 1.076639333 -s 7 -d -1 -p DSR -e 126 -c 2 -a 0 -i 3 -k MAC
d -t 1.076639373 -s 27 -d -1 -p DSR -e 126 -c 2 -a 0 -i 3 -k MAC
d -t 1.076639432 -s 53 -d -1 -p DSR -e 126 -c 2 -a 0 -i 3 -k MAC
d -t 1.076639504 -s 5 -d -1 -p DSR -e 126 -c 2 -a 0 -i 3 -k MAC
d -t 1.076639554 -s 22 -d -1 -p DSR -e 126 -c 2 -a 0 -i 3 -k MAC
d -t 1.076639572 -s 40 -d -1 -p DSR -e 126 -c 2 -a 0 -i 3 -k MAC
d -t 1.076639587 -s 21 -d -1 -p DSR -e 126 -c 2 -a 0 -i 3 -k MAC
d -t 1.076639602 -s 50 -d -1 -p DSR -e 126 -c 2 -a 0 -i 3 -k MAC
d -t 1.076639684 -s 57 -d -1 -p DSR -e 126 -c 2 -a 0 -i 3 -k MAC
d -t 1.076639686 -s 1 -d -1 -p DSR -e 126 -c 2 -a 0 -i 3 -k MAC
+ -t 1.076654819 -s 36 -d -1 -p DSR -e 68 -c 2 -a 0 -i 3 -k RTR 
- -t 1.076654819 -s 36 -d -1 -p DSR -e 68 -c 2 -a 0 -i 3 -k RTR
h -t 1.076654819 -s 36 -d -1 -p DSR -e 68 -c 2 -a 0 -i 3 -k RTR
+ -t 1.076978293 -s 7 -d -1 -p DSR -e 68 -c 2 -a 0 -i 3 -k RTR 
- -t 1.076978293 -s 7 -d -1 -p DSR -e 68 -c 2 -a 0 -i 3 -k RTR
h -t 1.076978293 -s 7 -d -1 -p DSR -e 68 -c 2 -a 0 -i 3 -k RTR
+ -t 1.077054372 -s 13 -d -1 -p DSR -e 106 -c 2 -a 0 -i 3 -k MAC 
- -t 1.077054372 -s 13 -d -1 -p DSR -e 106 -c 2 -a 0 -i 3 -k MAC
h -t 1.077054372 -s 13 -d -1 -p DSR -e 106 -c 2 -a 0 -i 3 -k MAC
+ -t 1.077138425 -s 32 -d -1 -p DSR -e 68 -c 2 -a 0 -i 3 -k RTR 
- -t 1.077138425 -s 32 -d -1 -p DSR -e 68 -c 2 -a 0 -i 3 -k RTR
h -t 1.077138425 -s 32 -d -1 -p DSR -e 68 -c 2 -a 0 -i 3 -k RTR
+ -t 1.077339697 -s 41 -d -1 -p DSR -e 68 -c 2 -a 0 -i 3 -k RTR 
- -t 1.077339697 -s 41 -d -1 -p DSR -e 68 -c 2 -a 0 -i 3 -k RTR
h -t 1.077339697 -s 41 -d -1 -p DSR -e 68 -c 2 -a 0 -i 3 -k RTR
+ -t 1.077558870 -s 28 -d -1 -p DSR -e 68 -c 2 -a 0 -i 3 -k RTR 
- -t 1.077558870 -s 28 -d -1 -p DSR -e 68 -c 2 -a 0 -i 3 -k RTR
h -t 1.077558870 -s 28 -d -1 -p DSR -e 68 -c 2 -a 0 -i 3 -k RTR
r -t 1.077902642 -s 48 -d -1 -p DSR -e 48 -c 2 -a 0 -i 3 -k MAC
r -t 1.077902771 -s 0 -d -1 -p DSR -e 48 -c 2 -a 0 -i 3 -k MAC
r -t 1.077902793 -s 58 -d -1 -p DSR -e 48 -c 2 -a 0 -i 3 -k MAC
r -t 1.077902812 -s 3 -d -1 -p DSR -e 48 -c 2 -a 0 -i 3 -k MAC
r -t 1.077902829 -s 44 -d -1 -p DSR -e 48 -c 2 -a 0 -i 3 -k MAC
r -t 1.077902849 -s 24 -d -1 -p DSR -e 48 -c 2 -a 0 -i 3 -k MAC
+ -t 1.078212849 -s 24 -d -1 -p DSR -e 106 -c 2 -a 0 -i 3 -k MAC 
- -t 1.078212849 -s 24 -d -1 -p DSR -e 106 -c 2 -a 0 -i 3 -k MAC
h -t 1.078212849 -s 24 -d -1 -p DSR -e 106 -c 2 -a 0 -i 3 -k MAC
+ -t 1.078937543 -s 10 -d -1 -p DSR -e 68 -c 2 -a 0 -i 3 -k RTR 
- -t 1.078937543 -s 10 -d -1 -p DSR -e 68 -c 2 -a 0 -i 3 -k RTR
h -t 1.078937543 -s 10 -d -1 -p DSR -e 68 -c 2 -a 0 -i 3 -k RTR
r -t 1.079061056 -s 0 -d -1 -p DSR -e 48 -c 2 -a 0 -i 3 -k MAC
r -t 1.079061128 -s 58 -d -1 -p DSR -e 48 -c 2 -a 0 -i 3 -k MAC
r -t 1.079061133 -s 3 -d -1 -p DSR -e 48 -c 2 -a 0 -i 3 -k MAC
r -t 1.079061210 -s 50 -d -1 -p DSR -e 48 -c 2 -a 0 -i 3 -k MAC
r -t 1.079061214 -s 48 -d -1 -p DSR -e 48 -c 2 -a 0 -i 3 -k MAC
r -t 1.079061233 -s 21 -d -1 -p DSR -e 48 -c 2 -a 0 -i 3 -k MAC
r -t 1.079061277 -s 44 -d -1 -p DSR -e 48 -c 2 -a 0 -i 3 -k MAC
r -t 1.079061287 -s 5 -d -1 -p DSR -e 48 -c 2 -a 0 -i 3 -k MAC
r -t 1.079061302 -s 8 -d -1 -p DSR -e 48 -c 2 -a 0 -i 3 -k MAC
r -t 1.079061325 -s 13 -d -1 -p DSR -e 48 -c 2 -a 0 -i 3 -k MAC
r -t 1.079061348 -s 40 -d -1 -p DSR -e 48 -c 2 -a 0 -i 3 -k MAC
r -t 1.079061483 -s 9 -d -1 -p DSR -e 48 -c 2 -a 0 -i 3 -k MAC
r -t 1.079061568 -s 54 -d -1 -p DSR -e 48 -c 2 -a 0 -i 3 -k MAC
r -t 1.079061605 -s 32 -d -1 -p DSR -e 48 -c 2 -a 0 -i 3 -k MAC
+ -t 1.079311233 -s 21 -d -1 -p DSR -e 106 -c 2 -a 0 -i 3 -k MAC 
- -t 1.079311233 -s 21 -d -1 -p DSR -e 106 -c 2 -a 0 -i 3 -k MAC
h -t 1.079311233 -s 21 -d -1 -p DSR -e 106 -c 2 -a 0 -i 3 -k MAC
r -t 1.080159257 -s 50 -d -1 -p DSR -e 48 -c 2 -a 0 -i 3 -k MAC
r -t 1.080159325 -s 5 -d -1 -p DSR -e 48 -c 2 -a 0 -i 3 -k MAC
r -t 1.080159379 -s 40 -d -1 -p DSR -e 48 -c 2 -a 0 -i 3 -k MAC
r -t 1.080159613 -s 8 -d -1 -p DSR -e 48 -c 2 -a 0 -i 3 -k MAC
r -t 1.080159617 -s 24 -d -1 -p DSR -e 48 -c 2 -a 0 -i 3 -k MAC
r -t 1.080159622 -s 54 -d -1 -p DSR -e 48 -c 2 -a 0 -i 3 -k MAC
r -t 1.080159707 -s 9 -d -1 -p DSR -e 48 -c 2 -a 0 -i 3 -k MAC
r -t 1.080159759 -s 0 -d -1 -p DSR -e 48 -c 2 -a 0 -i 3 -k MAC
r -t 1.080159795 -s 3 -d -1 -p DSR -e 48 -c 2 -a 0 -i 3 -k MAC
r -t 1.080159810 -s 58 -d -1 -p DSR -e 48 -c 2 -a 0 -i 3 -k MAC
r -t 1.080159841 -s 22 -d -1 -p DSR -e 48 -c 2 -a 0 -i 3 -k MAC
r -t 1.080159874 -s 32 -d -1 -p DSR -e 48 -c 2 -a 0 -i 3 -k MAC
r -t 1.080159882 -s 10 -d -1 -p DSR -e 48 -c 2 -a 0 -i 3 -k MAC
r -t 1.080159895 -s 28 -d -1 -p DSR -e 48 -c 2 -a 0 -i 3 -k MAC
r -t 1.080159896 -s 41 -d -1 -p DSR -e 48 -c 2 -a 0 -i 3 -k MAC
r -t 1.080159929 -s 56 -d -1 -p DSR -e 48 -c 2 -a 0 -i 3 -k MAC
r -t 1.080159931 -s 44 -d -1 -p DSR -e 48 -c 2 -a 0 -i 3 -k MAC
r -t 1.080159947 -s 48 -d -1 -p DSR -e 48 -c 2 -a 0 -i 3 -k MAC
r -t 1.080159963 -s 12 -d -1 -p DSR -e 48 -c 2 -a 0 -i 3 -k MAC
r -t 1.080159979 -s 36 -d -1 -p DSR -e 48 -c 2 -a 0 -i 3 -k MAC
r -t 1.080160004 -s 49 -d -1 -p DSR -e 48 -c 2 -a 0 -i 3 -k MAC
+ -t 1.080289841 -s 22 -d -1 -p DSR -e 126 -c 2 -a 0 -i 3 -k MAC 
- -t 1.080289841 -s 22 -d -1 -p DSR -e 126 -c 2 -a 0 -i 3 -k MAC
h -t 1.080289841 -s 22 -d -1 -p DSR -e 126 -c 2 -a 0 -i 3 -k MAC
+ -t 1.080905475 -s 39 -d -1 -p DSR -e 68 -c 2 -a 0 -i 3 -k RTR 
- -t 1.080905475 -s 39 -d -1 -p DSR -e 68 -c 2 -a 0 -i 3 -k RTR
h -t 1.080905475 -s 39 -d -1 -p DSR -e 68 -c 2 -a 0 -i 3 -k RTR
r -t 1.081298066 -s 28 -d -1 -p DSR -e 68 -c 2 -a 0 -i 3 -k MAC
r -t 1.081298136 -s 57 -d -1 -p DSR -e 68 -c 2 -a 0 -i 3 -k MAC
r -t 1.081298199 -s 31 -d -1 -p DSR -e 68 -c 2 -a 0 -i 3 -k MAC
r -t 1.081298311 -s 40 -d -1 -p DSR -e 68 -c 2 -a 0 -i 3 -k MAC
r -t 1.081298377 -s 9 -d -1 -p DSR -e 68 -c 2 -a 0 -i 3 -k MAC
r -t 1.081298444 -s 54 -d -1 -p DSR -e 68 -c 2 -a 0 -i 3 -k MAC
r -t 1.081298449 -s 21 -d -1 -p DSR -e 68 -c 2 -a 0 -i 3 -k MAC
r -t 1.081298451 -s 5 -d -1 -p DSR -e 68 -c 2 -a 0 -i 3 -k MAC
r -t 1.081298472 -s 50 -d -1 -p DSR -e 68 -c 2 -a 0 -i 3 -k MAC
r -t 1.081298475 -s 32 -d -1 -p DSR -e 68 -c 2 -a 0 -i 3 -k MAC
r -t 1.081298498 -s 8 -d -1 -p DSR -e 68 -c 2 -a 0 -i 3 -k MAC
r -t 1.081298539 -s 12 -d -1 -p DSR -e 68 -c 2 -a 0 -i 3 -k MAC
r -t 1.081298578 -s 10 -d -1 -p DSR -e 68 -c 2 -a 0 -i 3 -k MAC
r -t 1.081298606 -s 41 -d -1 -p DSR -e 68 -c 2 -a 0 -i 3 -k MAC
r -t 1.081298630 -s 33 -d -1 -p DSR -e 68 -c 2 -a 0 -i 3 -k MAC
+ -t 1.081388136 -s 57 -d -1 -p DSR -e 126 -c 2 -a 0 -i 3 -k MAC 
- -t 1.081388136 -s 57 -d -1 -p DSR -e 126 -c 2 -a 0 -i 3 -k MAC
h -t 1.081388136 -s 57 -d -1 -p DSR -e 126 -c 2 -a 0 -i 3 -k MAC