0.00000  -1 -1 -1 -1 cwnd_ 1.000 
0.00000  -1 -1 -1 -1 ssthresh_ 20
0.00000  -1 -1 -1 -1 ack_ -1
0.00000  -1 -1 -1 -1 maxseq_ -1
M 1.00000 0 (3385.00, 3955.00, 0.00), (3561.00, 3841.00), 10.00
s 1.000000000 _0_ AGT  --- 0 tcp 40 [0 0 0 0] ------- [0:0 29:0 32 0] [0 -1] 0 0
r 1.000000000 _0_ RTR  --- 0 tcp 40 [0 0 0 0] ------- [0:0 29:0 32 0] [0 -1] 0 0
1.00000  0  0  29 0  maxseq_ 1
s 1.000000000 _0_ RTR  --- 0 AODV 48 [0 0 0 0] ------- [0:255 -1:255 30 0] [0x2 1 1 [29 0] [0 4]] (REQUEST)
s 1.000375000 _0_ MAC  --- 0 AODV 106 [0 ffffffff 0 800] ------- [0:255 -1:255 30 0] [0x2 1 1 [29 0] [0 4]] (REQUEST)
r 1.001223318 _21_ MAC  --- 0 AODV 48 [0 ffffffff 0 800] ------- [0:255 -1:255 30 0] [0x2 1 1 [29 0] [0 4]] (REQUEST)
r 1.001223681 _16_ MAC  --- 0 AODV 48 [0 ffffffff 0 800] ------- [0:255 -1:255 30 0] [0x2 1 1 [29 0] [0 4]] (REQUEST)
r 1.001223718 _9_ MAC  --- 0 AODV 48 [0 ffffffff 0 800] ------- [0:255 -1:255 30 0] [0x2 1 1 [29 0] [0 4]] (REQUEST)
r 1.001223749 _27_ MAC  --- 0 AODV 48 [0 ffffffff 0 800] ------- [0:255 -1:255 30 0] [0x2 1 1 [29 0] [0 4]] (REQUEST)
r 1.001223793 _8_ MAC  --- 0 AODV 48 [0 ffffffff 0 800] ------- [0:255 -1:255 30 0] [0x2 1 1 [29 0] [0 4]] (REQUEST)
r 1.001248318 _21_ RTR  --- 0 AODV 48 [0 ffffffff 0 800] ------- [0:255 -1:255 30 0] [0x2 1 1 [29 0] [0 4]] (REQUEST)
r 1.001248681 _16_ RTR  --- 0 AODV 48 [0 ffffffff 0 800] ------- [0:255 -1:255 30 0] [0x2 1 1 [29 0] [0 4]] (REQUEST)
r 1.001248718 _9_ RTR  --- 0 AODV 48 [0 ffffffff 0 800] ------- [0:255 -1:255 30 0] [0x2 1 1 [29 0] [0 4]] (REQUEST)
r 1.001248749 _27_ RTR  --- 0 AODV 48 [0 ffffffff 0 800] ------- [0:255 -1:255 30 0] [0x2 1 1 [29 0] [0 4]] (REQUEST)
r 1.001248793 _8_ RTR  --- 0 AODV 48 [0 ffffffff 0 800] ------- [0:255 -1:255 30 0] [0x2 1 1 [29 0] [0 4]] (REQUEST)
s 1.003594766 _27_ RTR  --- 0 AODV 48 [0 ffffffff 0 800] ------- [27:255 -1:255 29 0] [0x2 2 1 [29 0] [0 4]] (REQUEST)
s 1.003929766 _27_ MAC  --- 0 AODV 106 [0 ffffffff 1b 800] ------- [27:255 -1:255 29 0] [0x2 2 1 [29 0] [0 4]] (REQUEST)
s 1.004378299 _16_ RTR  --- 0 AODV 48 [0 ffffffff 0 800] ------- [16:255 -1:255 29 0] [0x2 2 1 [29 0] [0 4]] (REQUEST)
r 1.004778005 _2_ MAC  --- 0 AODV 48 [0 ffffffff 1b 800] ------- [27:255 -1:255 29 0] [0x2 2 1 [29 0] [0 4]] (REQUEST)
r 1.004778271 _8_ MAC  --- 0 AODV 48 [0 ffffffff 1b 800] ------- [27:255 -1:255 29 0] [0x2 2 1 [29 0] [0 4]] (REQUEST)
r 1.004778379 _9_ MAC  --- 0 AODV 48 [0 ffffffff 1b 800] ------- [27:255 -1:255 29 0] [0x2 2 1 [29 0] [0 4]] (REQUEST)
r 1.004778457 _12_ MAC  --- 0 AODV 48 [0 ffffffff 1b 800] ------- [27:255 -1:255 29 0] [0x2 2 1 [29 0] [0 4]] (REQUEST)
r 1.004778515 _0_ MAC  --- 0 AODV 48 [0 ffffffff 1b 800] ------- [27:255 -1:255 29 0] [0x2 2 1 [29 0] [0 4]] (REQUEST)
r 1.004803005 _2_ RTR  --- 0 AODV 48 [0 ffffffff 1b 800] ------- [27:255 -1:255 29 0] [0x2 2 1 [29 0] [0 4]] (REQUEST)
r 1.004803271 _8_ RTR  --- 0 AODV 48 [0 ffffffff 1b 800] ------- [27:255 -1:255 29 0] [0x2 2 1 [29 0] [0 4]] (REQUEST)
r 1.004803379 _9_ RTR  --- 0 AODV 48 [0 ffffffff 1b 800] ------- [27:255 -1:255 29 0] [0x2 2 1 [29 0] [0 4]] (REQUEST)
r 1.004803457 _12_ RTR  --- 0 AODV 48 [0 ffffffff 1b 800] ------- [27:255 -1:255 29 0] [0x2 2 1 [29 0] [0 4]] (REQUEST)
r 1.004803515 _0_ RTR  --- 0 AODV 48 [0 ffffffff 1b 800] ------- [27:255 -1:255 29 0] [0x2 2 1 [29 0] [0 4]] (REQUEST)
s 1.005230951 _2_ RTR  --- 0 AODV 48 [0 ffffffff 1b 800] ------- [2:255 -1:255 28 0] [0x2 3 1 [29 0] [0 4]] (REQUEST)
s 1.005432839 _16_ MAC  --- 0 AODV 106 [0 ffffffff 10 800] ------- [16:255 -1:255 29 0] [0x2 2 1 [29 0] [0 4]] (REQUEST)
r 1.006281521 _0_ MAC  --- 0 AODV 48 [0 ffffffff 10 800] ------- [16:255 -1:255 29 0] [0x2 2 1 [29 0] [0 4]] (REQUEST)
r 1.006281572 _8_ MAC  --- 0 AODV 48 [0 ffffffff 10 800] ------- [16:255 -1:255 29 0] [0x2 2 1 [29 0] [0 4]] (REQUEST)
r 1.006306521 _0_ RTR  --- 0 AODV 48 [0 ffffffff 10 800] ------- [16:255 -1:255 29 0] [0x2 2 1 [29 0] [0 4]] (REQUEST)
r 1.006306572 _8_ RTR  --- 0 AODV 48 [0 ffffffff 10 800] ------- [16:255 -1:255 29 0] [0x2 2 1 [29 0] [0 4]] (REQUEST)
s 1.006935862 _2_ MAC  --- 0 AODV 106 [0 ffffffff 2 800] ------- [2:255 -1:255 28 0] [0x2 3 1 [29 0] [0 4]] (REQUEST)
s 1.007637444 _8_ RTR  --- 0 AODV 48 [0 ffffffff 0 800] ------- [8:255 -1:255 29 0] [0x2 2 1 [29 0] [0 4]] (REQUEST)
r 1.007784102 _27_ MAC  --- 0 AODV 48 [0 ffffffff 2 800] ------- [2:255 -1:255 28 0] [0x2 3 1 [29 0] [0 4]] (REQUEST)
r 1.007784200 _8_ MAC  --- 0 AODV 48 [0 ffffffff 2 800] ------- [2:255 -1:255 28 0] [0x2 3 1 [29 0] [0 4]] (REQUEST)
r 1.007809102 _27_ RTR  --- 0 AODV 48 [0 ffffffff 2 800] ------- [2:255 -1:255 28 0] [0x2 3 1 [29 0] [0 4]] (REQUEST)
r 1.007809200 _8_ RTR  --- 0 AODV 48 [0 ffffffff 2 800] ------- [2:255 -1:255 28 0] [0x2 3 1 [29 0] [0 4]] (REQUEST)
s 1.007994200 _8_ MAC  --- 0 AODV 106 [0 ffffffff 8 800] ------- [8:255 -1:255 29 0] [0x2 2 1 [29 0] [0 4]] (REQUEST)
r 1.008842538 _2_ MAC  --- 0 AODV 48 [0 ffffffff 8 800] ------- [8:255 -1:255 29 0] [0x2 2 1 [29 0] [0 4]] (REQUEST)
r 1.008842706 _27_ MAC  --- 0 AODV 48 [0 ffffffff 8 800] ------- [8:255 -1:255 29 0] [0x2 2 1 [29 0] [0 4]] (REQUEST)
r 1.008842933 _16_ MAC  --- 0 AODV 48 [0 ffffffff 8 800] ------- [8:255 -1:255 29 0] [0x2 2 1 [29 0] [0 4]] (REQUEST)
r 1.008842993 _0_ MAC  --- 0 AODV 48 [0 ffffffff 8 800] ------- [8:255 -1:255 29 0] [0x2 2 1 [29 0] [0 4]] (REQUEST)
r 1.008867538 _2_ RTR  --- 0 AODV 48 [0 ffffffff 8 800] ------- [8:255 -1:255 29 0] [0x2 2 1 [29 0] [0 4]] (REQUEST)
r 1.008867706 _27_ RTR  --- 0 AODV 48 [0 ffffffff 8 800] ------- [8:255 -1:255 29 0] [0x2 2 1 [29 0] [0 4]] (REQUEST)
r 1.008867933 _16_ RTR  --- 0 AODV 48 [0 ffffffff 8 800] ------- [8:255 -1:255 29 0] [0x2 2 1 [29 0] [0 4]] (REQUEST)
r 1.008867993 _0_ RTR  --- 0 AODV 48 [0 ffffffff 8 800] ------- [8:255 -1:255 29 0] [0x2 2 1 [29 0] [0 4]] (REQUEST)
s 1.009239873 _21_ RTR  --- 0 AODV 48 [0 ffffffff 0 800] ------- [21:255 -1:255 29 0] [0x2 2 1 [29 0] [0 4]] (REQUEST)
s 1.009413478 _9_ RTR  --- 0 AODV 48 [0 ffffffff 0 800] ------- [9:255 -1:255 29 0] [0x2 2 1 [29 0] [0 4]] (REQUEST)
s 1.009634873 _21_ MAC  --- 0 AODV 106 [0 ffffffff 15 800] ------- [21:255 -1:255 29 0] [0x2 2 1 [29 0] [0 4]] (REQUEST)
r 1.010483191 _0_ MAC  --- 0 AODV 48 [0 ffffffff 15 800] ------- [21:255 -1:255 29 0] [0x2 2 1 [29 0] [0 4]] (REQUEST)
r 1.010483573 _9_ MAC  --- 0 AODV 48 [0 ffffffff 15 800] ------- [21:255 -1:255 29 0] [0x2 2 1 [29 0] [0 4]] (REQUEST)
r 1.010508191 _0_ RTR  --- 0 AODV 48 [0 ffffffff 15 800] ------- [21:255 -1:255 29 0] [0x2 2 1 [29 0] [0 4]] (REQUEST)
r 1.010508573 _9_ RTR  --- 0 AODV 48 [0 ffffffff 15 800] ------- [21:255 -1:255 29 0] [0x2 2 1 [29 0] [0 4]] (REQUEST)
s 1.010593573 _9_ MAC  --- 0 AODV 106 [0 ffffffff 9 800] ------- [9:255 -1:255 29 0] [0x2 2 1 [29 0] [0 4]] (REQUEST)
s 1.011204134 _12_ RTR  --- 0 AODV 48 [0 ffffffff 1b 800] ------- [12:255 -1:255 28 0] [0x2 3 1 [29 0] [0 4]] (REQUEST)
r 1.011442033 _26_ MAC  --- 0 AODV 48 [0 ffffffff 9 800] ------- [9:255 -1:255 29 0] [0x2 2 1 [29 0] [0 4]] (REQUEST)
r 1.011442186 _27_ MAC  --- 0 AODV 48 [0 ffffffff 9 800] ------- [9:255 -1:255 29 0] [0x2 2 1 [29 0] [0 4]] (REQUEST)
r 1.011442203 _12_ MAC  --- 0 AODV 48 [0 ffffffff 9 800] ------- [9:255 -1:255 29 0] [0x2 2 1 [29 0] [0 4]] (REQUEST)
r 1.011442232 _15_ MAC  --- 0 AODV 48 [0 ffffffff 9 800] ------- [9:255 -1:255 29 0] [0x2 2 1 [29 0] [0 4]] (REQUEST)
r 1.011442272 _21_ MAC  --- 0 AODV 48 [0 ffffffff 9 800] ------- [9:255 -1:255 29 0] [0x2 2 1 [29 0] [0 4]] (REQUEST)
r 1.011442290 _0_ MAC  --- 0 AODV 48 [0 ffffffff 9 800] ------- [9:255 -1:255 29 0] [0x2 2 1 [29 0] [0 4]] (REQUEST)
r 1.011442296 _28_ MAC  --- 0 AODV 48 [0 ffffffff 9 800] ------- [9:255 -1:255 29 0] [0x2 2 1 [29 0] [0 4]] (REQUEST)
r 1.011467033 _26_ RTR  --- 0 AODV 48 [0 ffffffff 9 800] ------- [9:255 -1:255 29 0] [0x2 2 1 [29 0] [0 4]] (REQUEST)
r 1.011467186 _27_ RTR  --- 0 AODV 48 [0 ffffffff 9 800] ------- [9:255 -1:255 29 0] [0x2 2 1 [29 0] [0 4]] (REQUEST)
r 1.011467203 _12_ RTR  --- 0 AODV 48 [0 ffffffff 9 800] ------- [9:255 -1:255 29 0] [0x2 2 1 [29 0] [0 4]] (REQUEST)
r 1.011467232 _15_ RTR  --- 0 AODV 48 [0 ffffffff 9 800] ------- [9:255 -1:255 29 0] [0x2 2 1 [29 0] [0 4]] (REQUEST)
r 1.011467272 _21_ RTR  --- 0 AODV 48 [0 ffffffff 9 800] ------- [9:255 -1:255 29 0] [0x2 2 1 [29 0] [0 4]] (REQUEST)
r 1.011467290 _0_ RTR  --- 0 AODV 48 [0 ffffffff 9 800] ------- [9:255 -1:255 29 0] [0x2 2 1 [29 0] [0 4]] (REQUEST)
r 1.011467296 _28_ RTR  --- 0 AODV 48 [0 ffffffff 9 800] ------- [9:255 -1:255 29 0] [0x2 2 1 [29 0] [0 4]] (REQUEST)
s 1.011512203 _12_ MAC  --- 0 AODV 106 [0 ffffffff c 800] ------- [12:255 -1:255 28 0] [0x2 3 1 [29 0] [0 4]] (REQUEST)
r 1.012360555 _24_ MAC  --- 0 AODV 48 [0 ffffffff c 800] ------- [12:255 -1:255 28 0] [0x2 3 1 [29 0] [0 4]] (REQUEST)
r 1.012360703 _15_ MAC  --- 0 AODV 48 [0 ffffffff c 800] ------- [12:255 -1:255 28 0] [0x2 3 1 [29 0] [0 4]] (REQUEST)
r 1.012360834 _9_ MAC  --- 0 AODV 48 [0 ffffffff c 800] ------- [12:255 -1:255 28 0] [0x2 3 1 [29 0] [0 4]] (REQUEST)
r 1.012360894 _27_ MAC  --- 0 AODV 48 [0 ffffffff c 800] ------- [12:255 -1:255 28 0] [0x2 3 1 [29 0] [0 4]] (REQUEST)
r 1.012360934 _22_ MAC  --- 0 AODV 48 [0 ffffffff c 800] ------- [12:255 -1:255 28 0] [0x2 3 1 [29 0] [0 4]] (REQUEST)
r 1.012360984 _26_ MAC  --- 0 AODV 48 [0 ffffffff c 800] ------- [12:255 -1:255 28 0] [0x2 3 1 [29 0] [0 4]] (REQUEST)
r 1.012361034 _28_ MAC  --- 0 AODV 48 [0 ffffffff c 800] ------- [12:255 -1:255 28 0] [0x2 3 1 [29 0] [0 4]] (REQUEST)
r 1.012385555 _24_ RTR  --- 0 AODV 48 [0 ffffffff c 800] ------- [12:255 -1:255 28 0] [0x2 3 1 [29 0] [0 4]] (REQUEST)
r 1.012385703 _15_ RTR  --- 0 AODV 48 [0 ffffffff c 800] ------- [12:255 -1:255 28 0] [0x2 3 1 [29 0] [0 4]] (REQUEST)
r 1.012385834 _9_ RTR  --- 0 AODV 48 [0 ffffffff c 800] ------- [12:255 -1:255 28 0] [0x2 3 1 [29 0] [0 4]] (REQUEST)
r 1.012385894 _27_ RTR  --- 0 AODV 48 [0 ffffffff c 800] ------- [12:255 -1:255 28 0] [0x2 3 1 [29 0] [0 4]] (REQUEST)
r 1.012385934 _22_ RTR  --- 0 AODV 48 [0 ffffffff c 800] ------- [12:255 -1:255 28 0] [0x2 3 1 [29 0] [0 4]] (REQUEST)
r 1.012385984 _26_ RTR  --- 0 AODV 48 [0 ffffffff c 800] ------- [12:255 -1:255 28 0] [0x2 3 1 [29 0] [0 4]] (REQUEST)
r 1.012386034 _28_ RTR  --- 0 AODV 48 [0 ffffffff c 800] ------- [12:255 -1:255 28 0] [0x2 3 1 [29 0] [0 4]] (REQUEST)
s 1.014557150 _24_ RTR  --- 0 AODV 48 [0 ffffffff c 800] ------- [24:255 -1:255 27 0] [0x2 4 1 [29 0] [0 4]] (REQUEST)
s 1.014672150 _24_ MAC  --- 0 AODV 106 [0 ffffffff 18 800] ------- [24:255 -1:255 27 0] [0x2 4 1 [29 0] [0 4]] (REQUEST)
s 1.014798190 _22_ RTR  --- 0 AODV 48 [0 ffffffff c 800] ------- [22:255 -1:255 27 0] [0x2 4 1 [29 0] [0 4]] (REQUEST)
r 1.015520489 _15_ MAC  --- 0 AODV 48 [0 ffffffff 18 800] ------- [24:255 -1:255 27 0] [0x2 4 1 [29 0] [0 4]] (REQUEST)
r 1.015520502 _12_ MAC  --- 0 AODV 48 [0 ffffffff 18 800] ------- [24:255 -1:255 27 0] [0x2 4 1 [29 0] [0 4]] (REQUEST)
r 1.015520716 _19_ MAC  --- 0 AODV 48 [0 ffffffff 18 800] ------- [24:255 -1:255 27 0] [0x2 4 1 [29 0] [0 4]] (REQUEST)
r 1.015520842 _18_ MAC  --- 0 AODV 48 [0 ffffffff 18 800] ------- [24:255 -1:255 27 0] [0x2 4 1 [29 0] [0 4]] (REQUEST)
r 1.015520845 _28_ MAC  --- 0 AODV 48 [0 ffffffff 18 800] ------- [24:255 -1:255 27 0] [0x2 4 1 [29 0] [0 4]] (REQUEST)
r 1.015520854 _7_ MAC  --- 0 AODV 48 [0 ffffffff 18 800] ------- [24:255 -1:255 27 0] [0x2 4 1 [29 0] [0 4]] (REQUEST)
r 1.015520917 _13_ MAC  --- 0 AODV 48 [0 ffffffff 18 800] ------- [24:255 -1:255 27 0] [0x2 4 1 [29 0] [0 4]] (REQUEST)
r 1.015520930 _26_ MAC  --- 0 AODV 48 [0 ffffffff 18 800] ------- [24:255 -1:255 27 0] [0x2 4 1 [29 0] [0 4]] (REQUEST)
r 1.015520973 _22_ MAC  --- 0 AODV 48 [0 ffffffff 18 800] ------- [24:255 -1:255 27 0] [0x2 4 1 [29 0] [0 4]] (REQUEST)
r 1.015520980 _10_ MAC  --- 0 AODV 48 [0 ffffffff 18 800] ------- [24:255 -1:255 27 0] [0x2 4 1 [29 0] [0 4]] (REQUEST)
r 1.015545489 _15_ RTR  --- 0 AODV 48 [0 ffffffff 18 800] ------- [24:255 -1:255 27 0] [0x2 4 1 [29 0] [0 4]] (REQUEST)
r 1.015545502 _12_ RTR  --- 0 AODV 48 [0 ffffffff 18 800] ------- [24:255 -1:255 27 0] [0x2 4 1 [29 0] [0 4]] (REQUEST)
r 1.015545716 _19_ RTR  --- 0 AODV 48 [0 ffffffff 18 800] ------- [24:255 -1:255 27 0] [0x2 4 1 [29 0] [0 4]] (REQUEST)
r 1.015545842 _18_ RTR  --- 0 AODV 48 [0 ffffffff 18 800] ------- [24:255 -1:255 27 0] [0x2 4 1 [29 0] [0 4]] (REQUEST)
r 1.015545845 _28_ RTR  --- 0 AODV 48 [0 ffffffff 18 800] ------- [24:255 -1:255 27 0] [0x2 4 1 [29 0] [0 4]] (REQUEST)
r 1.015545854 _7_ RTR  --- 0 AODV 48 [0 ffffffff 18 800] ------- [24:255 -1:255 27 0] [0x2 4 1 [29 0] [0 4]] (REQUEST)
r 1.015545917 _13_ RTR  --- 0 AODV 48 [0 ffffffff 18 800] ------- [24:255 -1:255 27 0] [0x2 4 1 [29 0] [0 4]] (REQUEST)
r 1.015545930 _26_ RTR  --- 0 AODV 48 [0 ffffffff 18 800] ------- [24:255 -1:255 27 0] [0x2 4 1 [29 0] [0 4]] (REQUEST)
r 1.015545973 _22_ RTR  --- 0 AODV 48 [0 ffffffff 18 800] ------- [24:255 -1:255 27 0] [0x2 4 1 [29 0] [0 4]] (REQUEST)
r 1.015545980 _10_ RTR  --- 0 AODV 48 [0 ffffffff 18 800] ------- [24:255 -1:255 27 0] [0x2 4 1 [29 0] [0 4]] (REQUEST)
s 1.015870973 _22_ MAC  --- 0 AODV 106 [0 ffffffff 16 800] ------- [22:255 -1:255 27 0] [0x2 4 1 [29 0] [0 4]] (REQUEST)
s 1.016128192 _26_ RTR  --- 0 AODV 48 [0 ffffffff 9 800] ------- [26:255 -1:255 28 0] [0x2 3 1 [29 0] [0 4]] (REQUEST)
s 1.016637838 _7_ RTR  --- 0 AODV 48 [0 ffffffff 18 800] ------- [7:255 -1:255 26 0] [0x2 5 1 [29 0] [0 4]] (REQUEST)
r 1.016719659 _23_ MAC  --- 0 AODV 48 [0 ffffffff 16 800] ------- [22:255 -1:255 27 0] [0x2 4 1 [29 0] [0 4]] (REQUEST)
r 1.016719704 _12_ MAC  --- 0 AODV 48 [0 ffffffff 16 800] ------- [22:255 -1:255 27 0] [0x2 4 1 [29 0] [0 4]] (REQUEST)
r 1.016719797 _24_ MAC  --- 0 AODV 48 [0 ffffffff 16 800] ------- [22:255 -1:255 27 0] [0x2 4 1 [29 0] [0 4]] (REQUEST)
r 1.016744659 _23_ RTR  --- 0 AODV 48 [0 ffffffff 16 800] ------- [22:255 -1:255 27 0] [0x2 4 1 [29 0] [0 4]] (REQUEST)
r 1.016744704 _12_ RTR  --- 0 AODV 48 [0 ffffffff 16 800] ------- [22:255 -1:255 27 0] [0x2 4 1 [29 0] [0 4]] (REQUEST)
r 1.016744797 _24_ RTR  --- 0 AODV 48 [0 ffffffff 16 800] ------- [22:255 -1:255 27 0] [0x2 4 1 [29 0] [0 4]] (REQUEST)
s 1.017354499 _7_ MAC  --- 0 AODV 106 [0 ffffffff 7 800] ------- [7:255 -1:255 26 0] [0x2 5 1 [29 0] [0 4]] (REQUEST)
s 1.017419633 _10_ RTR  --- 0 AODV 48 [0 ffffffff 18 800] ------- [10:255 -1:255 26 0] [0x2 5 1 [29 0] [0 4]] (REQUEST)
s 1.017864972 _23_ RTR  --- 0 AODV 48 [0 ffffffff 16 800] ------- [23:255 -1:255 26 0] [0x2 5 1 [29 0] [0 4]] (REQUEST)
r 1.018202658 _28_ MAC  --- 0 AODV 48 [0 ffffffff 7 800] ------- [7:255 -1:255 26 0] [0x2 5 1 [29 0] [0 4]] (REQUEST)
r 1.018202858 _18_ MAC  --- 0 AODV 48 [0 ffffffff 7 800] ------- [7:255 -1:255 26 0] [0x2 5 1 [29 0] [0 4]] (REQUEST)
r 1.018202902 _15_ MAC  --- 0 AODV 48 [0 ffffffff 7 800] ------- [7:255 -1:255 26 0] [0x2 5 1 [29 0] [0 4]] (REQUEST)
r 1.018202960 _26_ MAC  --- 0 AODV 48 [0 ffffffff 7 800] ------- [7:255 -1:255 26 0] [0x2 5 1 [29 0] [0 4]] (REQUEST)
r 1.018203000 _13_ MAC  --- 0 AODV 48 [0 ffffffff 7 800] ------- [7:255 -1:255 26 0] [0x2 5 1 [29 0] [0 4]] (REQUEST)
r 1.018203033 _3_ MAC  --- 0 AODV 48 [0 ffffffff 7 800] ------- [7:255 -1:255 26 0] [0x2 5 1 [29 0] [0 4]] (REQUEST)
r 1.018203203 _24_ MAC  --- 0 AODV 48 [0 ffffffff 7 800] ------- [7:255 -1:255 26 0] [0x2 5 1 [29 0] [0 4]] (REQUEST)
r 1.018203287 _17_ MAC  --- 0 AODV 48 [0 ffffffff 7 800] ------- [7:255 -1:255 26 0] [0x2 5 1 [29 0] [0 4]] (REQUEST)
r 1.018203328 _10_ MAC  --- 0 AODV 48 [0 ffffffff 7 800] ------- [7:255 -1:255 26 0] [0x2 5 1 [29 0] [0 4]] (REQUEST)
r 1.018227658 _28_ RTR  --- 0 AODV 48 [0 ffffffff 7 800] ------- [7:255 -1:255 26 0] [0x2 5 1 [29 0] [0 4]] (REQUEST)
r 1.018227858 _18_ RTR  --- 0 AODV 48 [0 ffffffff 7 800] ------- [7:255 -1:255 26 0] [0x2 5 1 [29 0] [0 4]] (REQUEST)
r 1.018227902 _15_ RTR  --- 0 AODV 48 [0 ffffffff 7 800] ------- [7:255 -1:255 26 0] [0x2 5 1 [29 0] [0 4]] (REQUEST)
r 1.018227960 _26_ RTR  --- 0 AODV 48 [0 ffffffff 7 800] ------- [7:255 -1:255 26 0] [0x2 5 1 [29 0] [0 4]] (REQUEST)
r 1.018228000 _13_ RTR  --- 0 AODV 48 [0 ffffffff 7 800] ------- [7:255 -1:255 26 0] [0x2 5 1 [29 0] [0 4]] (REQUEST)
r 1.018228033 _3_ RTR  --- 0 AODV 48 [0 ffffffff 7 800] ------- [7:255 -1:255 26 0] [0x2 5 1 [29 0] [0 4]] (REQUEST)
r 1.018228203 _24_ RTR  --- 0 AODV 48 [0 ffffffff 7 800] ------- [7:255 -1:255 26 0] [0x2 5 1 [29 0] [0 4]] (REQUEST)
r 1.018228287 _17_ RTR  --- 0 AODV 48 [0 ffffffff 7 800] ------- [7:255 -1:255 26 0] [0x2 5 1 [29 0] [0 4]] (REQUEST)
r 1.018228328 _10_ RTR  --- 0 AODV 48 [0 ffffffff 7 800] ------- [7:255 -1:255 26 0] [0x2 5 1 [29 0] [0 4]] (REQUEST)
s 1.018313328 _10_ MAC  --- 0 AODV 106 [0 ffffffff a 800] ------- [10:255 -1:255 26 0] [0x2 5 1 [29 0] [0 4]] (REQUEST)
s 1.018390300 _15_ RTR  --- 0 AODV 48 [0 ffffffff 9 800] ------- [15:255 -1:255 28 0] [0x2 3 1 [29 0] [0 4]] (REQUEST)
r 1.019161683 _13_ MAC  --- 0 AODV 48 [0 ffffffff a 800] ------- [10:255 -1:255 26 0] [0x2 5 1 [29 0] [0 4]] (REQUEST)
r 1.019161691 _11_ MAC  --- 0 AODV 48 [0 ffffffff a 800] ------- [10:255 -1:255 26 0] [0x2 5 1 [29 0] [0 4]] (REQUEST)
r 1.019161695 _17_ MAC  --- 0 AODV 48 [0 ffffffff a 800] ------- [10:255 -1:255 26 0] [0x2 5 1 [29 0] [0 4]] (REQUEST)
r 1.019161804 _18_ MAC  --- 0 AODV 48 [0 ffffffff a 800] ------- [10:255 -1:255 26 0] [0x2 5 1 [29 0] [0 4]] (REQUEST)
r 1.019161897 _19_ MAC  --- 0 AODV 48 [0 ffffffff a 800] ------- [10:255 -1:255 26 0] [0x2 5 1 [29 0] [0 4]] (REQUEST)
r 1.019162030 _6_ MAC  --- 0 AODV 48 [0 ffffffff a 800] ------- [10:255 -1:255 26 0] [0x2 5 1 [29 0] [0 4]] (REQUEST)
r 1.019162157 _7_ MAC  --- 0 AODV 48 [0 ffffffff a 800] ------- [10:255 -1:255 26 0] [0x2 5 1 [29 0] [0 4]] (REQUEST)
r 1.019162158 _24_ MAC  --- 0 AODV 48 [0 ffffffff a 800] ------- [10:255 -1:255 26 0] [0x2 5 1 [29 0] [0 4]] (REQUEST)
r 1.019186683 _13_ RTR  --- 0 AODV 48 [0 ffffffff a 800] ------- [10:255 -1:255 26 0] [0x2 5 1 [29 0] [0 4]] (REQUEST)
r 1.019186691 _11_ RTR  --- 0 AODV 48 [0 ffffffff a 800] ------- [10:255 -1:255 26 0] [0x2 5 1 [29 0] [0 4]] (REQUEST)
r 1.019186695 _17_ RTR  --- 0 AODV 48 [0 ffffffff a 800] ------- [10:255 -1:255 26 0] [0x2 5 1 [29 0] [0 4]] (REQUEST)
r 1.019186804 _18_ RTR  --- 0 AODV 48 [0 ffffffff a 800] ------- [10:255 -1:255 26 0] [0x2 5 1 [29 0] [0 4]] (REQUEST)
r 1.019186897 _19_ RTR  --- 0 AODV 48 [0 ffffffff a 800] ------- [10:255 -1:255 26 0] [0x2 5 1 [29 0] [0 4]] (REQUEST)
r 1.019187030 _6_ RTR  --- 0 AODV 48 [0 ffffffff a 800] ------- [10:255 -1:255 26 0] [0x2 5 1 [29 0] [0 4]] (REQUEST)
r 1.019187157 _7_ RTR  --- 0 AODV 48 [0 ffffffff a 800] ------- [10:255 -1:255 26 0] [0x2 5 1 [29 0] [0 4]] (REQUEST)
r 1.019187158 _24_ RTR  --- 0 AODV 48 [0 ffffffff a 800] ------- [10:255 -1:255 26 0] [0x2 5 1 [29 0] [0 4]] (REQUEST)
s 1.019459322 _17_ RTR  --- 0 AODV 48 [0 ffffffff 7 800] ------- [17:255 -1:255 25 0] [0x2 6 1 [29 0] [0 4]] (REQUEST)
s 1.019587993 _13_ RTR  --- 0 AODV 48 [0 ffffffff 18 800] ------- [13:255 -1:255 26 0] [0x2 5 1 [29 0] [0 4]] (REQUEST)
s 1.019601033 _18_ RTR  --- 0 AODV 48 [0 ffffffff 18 800] ------- [18:255 -1:255 26 0] [0x2 5 1 [29 0] [0 4]] (REQUEST)
s 1.019696429 _23_ MAC  --- 0 AODV 106 [0 ffffffff 17 800] ------- [23:255 -1:255 26 0] [0x2 5 1 [29 0] [0 4]] (REQUEST)
s 1.020087968 _28_ RTR  --- 0 AODV 48 [0 ffffffff 9 800] ------- [28:255 -1:255 28 0] [0x2 3 1 [29 0] [0 4]] (REQUEST)
r 1.020544953 _25_ MAC  --- 0 AODV 48 [0 ffffffff 17 800] ------- [23:255 -1:255 26 0] [0x2 5 1 [29 0] [0 4]] (REQUEST)
r 1.020544998 _19_ MAC  --- 0 AODV 48 [0 ffffffff 17 800] ------- [23:255 -1:255 26 0] [0x2 5 1 [29 0] [0 4]] (REQUEST)
r 1.020545114 _22_ MAC  --- 0 AODV 48 [0 ffffffff 17 800] ------- [23:255 -1:255 26 0] [0x2 5 1 [29 0] [0 4]] (REQUEST)
r 1.020545194 _6_ MAC  --- 0 AODV 48 [0 ffffffff 17 800] ------- [23:255 -1:255 26 0] [0x2 5 1 [29 0] [0 4]] (REQUEST)
r 1.020569953 _25_ RTR  --- 0 AODV 48 [0 ffffffff 17 800] ------- [23:255 -1:255 26 0] [0x2 5 1 [29 0] [0 4]] (REQUEST)
r 1.020569998 _19_ RTR  --- 0 AODV 48 [0 ffffffff 17 800] ------- [23:255 -1:255 26 0] [0x2 5 1 [29 0] [0 4]] (REQUEST)
r 1.020570114 _22_ RTR  --- 0 AODV 48 [0 ffffffff 17 800] ------- [23:255 -1:255 26 0] [0x2 5 1 [29 0] [0 4]] (REQUEST)
r 1.020570194 _6_ RTR  --- 0 AODV 48 [0 ffffffff 17 800] ------- [23:255 -1:255 26 0] [0x2 5 1 [29 0] [0 4]] (REQUEST)
s 1.021019714 _15_ MAC  --- 0 AODV 106 [0 ffffffff f 800] ------- [15:255 -1:255 28 0] [0x2 3 1 [29 0] [0 4]] (REQUEST)
s 1.021019898 _17_ MAC  --- 0 AODV 106 [0 ffffffff 11 800] ------- [17:255 -1:255 25 0] [0x2 6 1 [29 0] [0 4]] (REQUEST)
D 1.021020357 _18_ MAC  COL 0 AODV 106 [0 ffffffff f 800] ------- [15:255 -1:255 28 0] [0x2 3 1 [29 0] [0 4]] (REQUEST)
D 1.021020640 _3_ MAC  COL 0 AODV 106 [0 ffffffff 11 800] ------- [17:255 -1:255 25 0] [0x2 6 1 [29 0] [0 4]] (REQUEST)
D 1.021020826 _19_ MAC  COL 0 AODV 106 [0 ffffffff f 800] ------- [15:255 -1:255 28 0] [0x2 3 1 [29 0] [0 4]] (REQUEST)
D 1.021020826 _11_ MAC  COL 0 AODV 106 [0 ffffffff 11 800] ------- [17:255 -1:255 25 0] [0x2 6 1 [29 0] [0 4]] (REQUEST)
s 1.021584661 _3_ RTR  --- 0 AODV 48 [0 ffffffff 7 800] ------- [3:255 -1:255 25 0] [0x2 6 1 [29 0] [0 4]] (REQUEST)
r 1.021868053 _24_ MAC  --- 0 AODV 48 [0 ffffffff f 800] ------- [15:255 -1:255 28 0] [0x2 3 1 [29 0] [0 4]] (REQUEST)
r 1.021868074 _28_ MAC  --- 0 AODV 48 [0 ffffffff f 800] ------- [15:255 -1:255 28 0] [0x2 3 1 [29 0] [0 4]] (REQUEST)
r 1.021868117 _7_ MAC  --- 0 AODV 48 [0 ffffffff f 800] ------- [15:255 -1:255 28 0] [0x2 3 1 [29 0] [0 4]] (REQUEST)
r 1.021868176 _26_ MAC  --- 0 AODV 48 [0 ffffffff f 800] ------- [15:255 -1:255 28 0] [0x2 3 1 [29 0] [0 4]] (REQUEST)
r 1.021868213 _12_ MAC  --- 0 AODV 48 [0 ffffffff f 800] ------- [15:255 -1:255 28 0] [0x2 3 1 [29 0] [0 4]] (REQUEST)
r 1.021868223 _13_ MAC  --- 0 AODV 48 [0 ffffffff 11 800] ------- [17:255 -1:255 25 0] [0x2 6 1 [29 0] [0 4]] (REQUEST)
r 1.021868265 _10_ MAC  --- 0 AODV 48 [0 ffffffff 11 800] ------- [17:255 -1:255 25 0] [0x2 6 1 [29 0] [0 4]] (REQUEST)
D 1.021868357 _18_ MAC  COL 0 AODV 106 [0 ffffffff 11 800] ------- [17:255 -1:255 25 0] [0x2 6 1 [29 0] [0 4]] (REQUEST)
r 1.021868372 _9_ MAC  --- 0 AODV 48 [0 ffffffff f 800] ------- [15:255 -1:255 28 0] [0x2 3 1 [29 0] [0 4]] (REQUEST)
r 1.021868611 _4_ MAC  --- 0 AODV 48 [0 ffffffff 11 800] ------- [17:255 -1:255 25 0] [0x2 6 1 [29 0] [0 4]] (REQUEST)
r 1.021868703 _20_ MAC  --- 0 AODV 48 [0 ffffffff 11 800] ------- [17:255 -1:255 25 0] [0x2 6 1 [29 0] [0 4]] (REQUEST)
r 1.021893053 _24_ RTR  --- 0 AODV 48 [0 ffffffff f 800] ------- [15:255 -1:255 28 0] [0x2 3 1 [29 0] [0 4]] (REQUEST)
r 1.021893074 _28_ RTR  --- 0 AODV 48 [0 ffffffff f 800] ------- [15:255 -1:255 28 0] [0x2 3 1 [29 0] [0 4]] (REQUEST)
r 1.021893117 _7_ RTR  --- 0 AODV 48 [0 ffffffff f 800] ------- [15:255 -1:255 28 0] [0x2 3 1 [29 0] [0 4]] (REQUEST)
r 1.021893176 _26_ RTR  --- 0 AODV 48 [0 ffffffff f 800] ------- [15:255 -1:255 28 0] [0x2 3 1 [29 0] [0 4]] (REQUEST)
r 1.021893213 _12_ RTR  --- 0 AODV 48 [0 ffffffff f 800] ------- [15:255 -1:255 28 0] [0x2 3 1 [29 0] [0 4]] (REQUEST)
r 1.021893223 _13_ RTR  --- 0 AODV 48 [0 ffffffff 11 800] ------- [17:255 -1:255 25 0] [0x2 6 1 [29 0] [0 4]] (REQUEST)
r 1.021893265 _10_ RTR  --- 0 AODV 48 [0 ffffffff 11 800] ------- [17:255 -1:255 25 0] [0x2 6 1 [29 0] [0 4]] (REQUEST)
r 1.021893372 _9_ RTR  --- 0 AODV 48 [0 ffffffff f 800] ------- [15:255 -1:255 28 0] [0x2 3 1 [29 0] [0 4]] (REQUEST)
r 1.021893611 _4_ RTR  --- 0 AODV 48 [0 ffffffff 11 800] ------- [17:255 -1:255 25 0] [0x2 6 1 [29 0] [0 4]] (REQUEST)
r 1.021893703 _20_ RTR  --- 0 AODV 48 [0 ffffffff 11 800] ------- [17:255 -1:255 25 0] [0x2 6 1 [29 0] [0 4]] (REQUEST)
s 1.022282640 _3_ MAC  --- 0 AODV 106 [0 ffffffff 3 800] ------- [3:255 -1:255 25 0] [0x2 6 1 [29 0] [0 4]] (REQUEST)
r 1.023131070 _4_ MAC  --- 0 AODV 48 [0 ffffffff 3 800] ------- [3:255 -1:255 25 0] [0x2 6 1 [29 0] [0 4]] (REQUEST)
r 1.023131174 _7_ MAC  --- 0 AODV 48 [0 ffffffff 3 800] ------- [3:255 -1:255 25 0] [0x2 6 1 [29 0] [0 4]] (REQUEST)
r 1.023131188 _18_ MAC  --- 0 AODV 48 [0 ffffffff 3 800] ------- [3:255 -1:255 25 0] [0x2 6 1 [29 0] [0 4]] (REQUEST)
r 1.023131225 _13_ MAC  --- 0 AODV 48 [0 ffffffff 3 800] ------- [3:255 -1:255 25 0] [0x2 6 1 [29 0] [0 4]] (REQUEST)
r 1.023131288 _17_ MAC  --- 0 AODV 48 [0 ffffffff 3 800] ------- [3:255 -1:255 25 0] [0x2 6 1 [29 0] [0 4]] (REQUEST)
r 1.023131295 _28_ MAC  --- 0 AODV 48 [0 ffffffff 3 800] ------- [3:255 -1:255 25 0] [0x2 6 1 [29 0] [0 4]] (REQUEST)
r 1.023156070 _4_ RTR  --- 0 AODV 48 [0 ffffffff 3 800] ------- [3:255 -1:255 25 0] [0x2 6 1 [29 0] [0 4]] (REQUEST)
r 1.023156174 _7_ RTR  --- 0 AODV 48 [0 ffffffff 3 800] ------- [3:255 -1:255 25 0] [0x2 6 1 [29 0] [0 4]] (REQUEST)
r 1.023156188 _18_ RTR  --- 0 AODV 48 [0 ffffffff 3 800] ------- [3:255 -1:255 25 0] [0x2 6 1 [29 0] [0 4]] (REQUEST)
r 1.023156225 _13_ RTR  --- 0 AODV 48 [0 ffffffff 3 800] ------- [3:255 -1:255 25 0] [0x2 6 1 [29 0] [0 4]] (REQUEST)
r 1.023156288 _17_ RTR  --- 0 AODV 48 [0 ffffffff 3 800] ------- [3:255 -1:255 25 0] [0x2 6 1 [29 0] [0 4]] (REQUEST)
r 1.023156295 _28_ RTR  --- 0 AODV 48 [0 ffffffff 3 800] ------- [3:255 -1:255 25 0] [0x2 6 1 [29 0] [0 4]] (REQUEST)
s 1.023261188 _18_ MAC  --- 0 AODV 106 [0 ffffffff 12 800] ------- [18:255 -1:255 26 0] [0x2 5 1 [29 0] [0 4]] (REQUEST)
s 1.023843123 _25_ RTR  --- 0 AODV 48 [0 ffffffff 17 800] ------- [25:255 -1:255 25 0] [0x2 6 1 [29 0] [0 4]] (REQUEST)
s 1.023961043 _20_ RTR  --- 0 AODV 48 [0 ffffffff 11 800] ------- [20:255 -1:255 24 0] [0x2 7 1 [29 0] [0 4]] (REQUEST)
r 1.024109332 _13_ MAC  --- 0 AODV 48 [0 ffffffff 12 800] ------- [18:255 -1:255 26 0] [0x2 5 1 [29 0] [0 4]] (REQUEST)
r 1.024109547 _7_ MAC  --- 0 AODV 48 [0 ffffffff 12 800] ------- [18:255 -1:255 26 0] [0x2 5 1 [29 0] [0 4]] (REQUEST)
r 1.024109647 _17_ MAC  --- 0 AODV 48 [0 ffffffff 12 800] ------- [18:255 -1:255 26 0] [0x2 5 1 [29 0] [0 4]] (REQUEST)
r 1.024109664 _10_ MAC  --- 0 AODV 48 [0 ffffffff 12 800] ------- [18:255 -1:255 26 0] [0x2 5 1 [29 0] [0 4]] (REQUEST)
r 1.024109694 _28_ MAC  --- 0 AODV 48 [0 ffffffff 12 800] ------- [18:255 -1:255 26 0] [0x2 5 1 [29 0] [0 4]] (REQUEST)
r 1.024109729 _15_ MAC  --- 0 AODV 48 [0 ffffffff 12 800] ------- [18:255 -1:255 26 0] [0x2 5 1 [29 0] [0 4]] (REQUEST)
r 1.024109735 _3_ MAC  --- 0 AODV 48 [0 ffffffff 12 800] ------- [18:255 -1:255 26 0] [0x2 5 1 [29 0] [0 4]] (REQUEST)
r 1.024109879 _24_ MAC  --- 0 AODV 48 [0 ffffffff 12 800] ------- [18:255 -1:255 26 0] [0x2 5 1 [29 0] [0 4]] (REQUEST)
r 1.024109986 _19_ MAC  --- 0 AODV 48 [0 ffffffff 12 800] ------- [18:255 -1:255 26 0] [0x2 5 1 [29 0] [0 4]] (REQUEST)
r 1.024109988 _26_ MAC  --- 0 AODV 48 [0 ffffffff 12 800] ------- [18:255 -1:255 26 0] [0x2 5 1 [29 0] [0 4]] (REQUEST)
r 1.024110010 _11_ MAC  --- 0 AODV 48 [0 ffffffff 12 800] ------- [18:255 -1:255 26 0] [0x2 5 1 [29 0] [0 4]] (REQUEST)
r 1.024134332 _13_ RTR  --- 0 AODV 48 [0 ffffffff 12 800] ------- [18:255 -1:255 26 0] [0x2 5 1 [29 0] [0 4]] (REQUEST)
r 1.024134547 _7_ RTR  --- 0 AODV 48 [0 ffffffff 12 800] ------- [18:255 -1:255 26 0] [0x2 5 1 [29 0] [0 4]] (REQUEST)
r 1.024134647 _17_ RTR  --- 0 AODV 48 [0 ffffffff 12 800] ------- [18:255 -1:255 26 0] [0x2 5 1 [29 0] [0 4]] (REQUEST)
r 1.024134664 _10_ RTR  --- 0 AODV 48 [0 ffffffff 12 800] ------- [18:255 -1:255 26 0] [0x2 5 1 [29 0] [0 4]] (REQUEST)
r 1.024134694 _28_ RTR  --- 0 AODV 48 [0 ffffffff 12 800] ------- [18:255 -1:255 26 0] [0x2 5 1 [29 0] [0 4]] (REQUEST)
r 1.024134729 _15_ RTR  --- 0 AODV 48 [0 ffffffff 12 800] ------- [18:255 -1:255 26 0] [0x2 5 1 [29 0] [0 4]] (REQUEST)
r 1.024134735 _3_ RTR  --- 0 AODV 48 [0 ffffffff 12 800] ------- [18:255 -1:255 26 0] [0x2 5 1 [29 0] [0 4]] (REQUEST)
r 1.024134879 _24_ RTR  --- 0 AODV 48 [0 ffffffff 12 800] ------- [18:255 -1:255 26 0] [0x2 5 1 [29 0] [0 4]] (REQUEST)
r 1.024134986 _19_ RTR  --- 0 AODV 48 [0 ffffffff 12 800] ------- [18:255 -1:255 26 0] [0x2 5 1 [29 0] [0 4]] (REQUEST)
r 1.024134988 _26_ RTR  --- 0 AODV 48 [0 ffffffff 12 800] ------- [18:255 -1:255 26 0] [0x2 5 1 [29 0] [0 4]] (REQUEST)
r 1.024135010 _11_ RTR  --- 0 AODV 48 [0 ffffffff 12 800] ------- [18:255 -1:255 26 0] [0x2 5 1 [29 0] [0 4]] (REQUEST)
s 1.024219988 _26_ MAC  --- 0 AODV 106 [0 ffffffff 1a 800] ------- [26:255 -1:255 28 0] [0x2 3 1 [29 0] [0 4]] (REQUEST)
s 1.024595170 _19_ RTR  --- 0 AODV 48 [0 ffffffff 18 800] ------- [19:255 -1:255 26 0] [0x2 5 1 [29 0] [0 4]] (REQUEST)
s 1.024635250 _6_ RTR  --- 0 AODV 48 [0 ffffffff a 800] ------- [6:255 -1:255 25 0] [0x2 6 1 [29 0] [0 4]] (REQUEST)
s 1.024644385 _20_ MAC  --- 0 AODV 106 [0 ffffffff 14 800] ------- [20:255 -1:255 24 0] [0x2 7 1 [29 0] [0 4]] (REQUEST)
D 1.024645582 _18_ MAC  COL 0 AODV 106 [0 ffffffff 1a 800] ------- [26:255 -1:255 28 0] [0x2 3 1 [29 0] [0 4]] (REQUEST)
s 1.024764846 _25_ MAC  --- 0 AODV 106 [0 ffffffff 19 800] ------- [25:255 -1:255 25 0] [0x2 6 1 [29 0] [0 4]] (REQUEST)
r 1.025068289 _28_ MAC  --- 0 AODV 48 [0 ffffffff 1a 800] ------- [26:255 -1:255 28 0] [0x2 3 1 [29 0] [0 4]] (REQUEST)
r 1.025068448 _9_ MAC  --- 0 AODV 48 [0 ffffffff 1a 800] ------- [26:255 -1:255 28 0] [0x2 3 1 [29 0] [0 4]] (REQUEST)
r 1.025068448 _7_ MAC  --- 0 AODV 48 [0 ffffffff 1a 800] ------- [26:255 -1:255 28 0] [0x2 3 1 [29 0] [0 4]] (REQUEST)
r 1.025068450 _15_ MAC  --- 0 AODV 48 [0 ffffffff 1a 800] ------- [26:255 -1:255 28 0] [0x2 3 1 [29 0] [0 4]] (REQUEST)
r 1.025068768 _24_ MAC  --- 0 AODV 48 [0 ffffffff 1a 800] ------- [26:255 -1:255 28 0] [0x2 3 1 [29 0] [0 4]] (REQUEST)
r 1.025068769 _12_ MAC  --- 0 AODV 48 [0 ffffffff 1a 800] ------- [26:255 -1:255 28 0] [0x2 3 1 [29 0] [0 4]] (REQUEST)
r 1.025093289 _28_ RTR  --- 0 AODV 48 [0 ffffffff 1a 800] ------- [26:255 -1:255 28 0] [0x2 3 1 [29 0] [0 4]] (REQUEST)
r 1.025093448 _9_ RTR  --- 0 AODV 48 [0 ffffffff 1a 800] ------- [26:255 -1:255 28 0] [0x2 3 1 [29 0] [0 4]] (REQUEST)
r 1.025093448 _7_ RTR  --- 0 AODV 48 [0 ffffffff 1a 800] ------- [26:255 -1:255 28 0] [0x2 3 1 [29 0] [0 4]] (REQUEST)