M 1.00000 2 (1361.00, 1839.00, 0.00), (1424.00, 1740.00), 10.00
M 1.00000 5 (1733.00, 1808.00, 0.00), (1625.00, 1789.00), 10.00
s 1.000000000 _0_ AGT  --- 0 tcp 40 [0 0 0 0] ------- [0:0 9:0 32 0] [0 0] 0 0
T 1.000000000 _0_ tora enq 0->9
T 1.000000000 _0_ tora sendQRY 9
s 1.000000000 _0_ RTR  --- 2 IMEP 38 [0 0 0 0] ------- [0:255 -1:255 1 0] [- - O 0x0012] 
s 1.000635000 _0_ MAC  --- 2 IMEP 96 [0 ffffffff 0 800] ------- [0:255 -1:255 1 0] [- - O 0x0012] 
r 1.001403708 _2_ MAC  --- 2 IMEP 38 [0 ffffffff 0 800] ------- [0:255 -1:255 1 0] [- - O 0x0012] 
r 1.001403778 _1_ MAC  --- 2 IMEP 38 [0 ffffffff 0 800] ------- [0:255 -1:255 1 0] [- - O 0x0012] 
s 1.100000000 _1_ RTR  --- 5 IMEP 34 [0 0 0 0] ------- [1:255 -1:255 1 0] [- H - 0x000e] 
s 1.100275000 _1_ MAC  --- 5 IMEP 92 [0 ffffffff 1 800] ------- [1:255 -1:255 1 0] [- H - 0x000e] 
r 1.101011502 _6_ MAC  --- 5 IMEP 34 [0 ffffffff 1 800] ------- [1:255 -1:255 1 0] [- H - 0x000e] 
r 1.101011778 _0_ MAC  --- 5 IMEP 34 [0 ffffffff 1 800] ------- [1:255 -1:255 1 0] [- H - 0x000e] 
T 1.101036778 _0_ QRY 9 for 1 (rtreq set)
T 1.101036778 _0_ tora sendQRY 9
s 1.109400014 _0_ RTR  --- 10 IMEP 52 [0 0 0 0] ------- [0:255 -1:255 1 0] [- H O 0x0020] 
s 1.109515014 _0_ MAC  --- 10 IMEP 110 [0 ffffffff 0 800] ------- [0:255 -1:255 1 0] [- H O 0x0020] 
r 1.110395721 _2_ MAC  --- 10 IMEP 52 [0 ffffffff 0 800] ------- [0:255 -1:255 1 0] [- H O 0x0020] 
r 1.110395792 _1_ MAC  --- 10 IMEP 52 [0 ffffffff 0 800] ------- [0:255 -1:255 1 0] [- H O 0x0020] 
T 1.110420792 _1_ QRY 9 for 0 (rtreq set)
T 1.110420792 _1_ tora sendQRY 9
s 1.116821468 _1_ RTR  --- 12 IMEP 52 [0 0 0 0] ------- [1:255 -1:255 1 0] [- H O 0x0020] 
s 1.117256468 _1_ MAC  --- 12 IMEP 110 [0 ffffffff 1 800] ------- [1:255 -1:255 1 0] [- H O 0x0020] 
r 1.118136970 _6_ MAC  --- 12 IMEP 52 [0 ffffffff 1 800] ------- [1:255 -1:255 1 0] [- H O 0x0020] 
r 1.118137246 _0_ MAC  --- 12 IMEP 52 [0 ffffffff 1 800] ------- [1:255 -1:255 1 0] [- H O 0x0020] 
s 1.195546047 _2_ RTR  --- 14 IMEP 34 [0 0 0 0] ------- [2:255 -1:255 1 0] [- H - 0x000e] 
s 1.196101047 _2_ MAC  --- 14 IMEP 92 [0 ffffffff 2 800] ------- [2:255 -1:255 1 0] [- H - 0x000e] 
r 1.196837716 _3_ MAC  --- 14 IMEP 34 [0 ffffffff 2 800] ------- [2:255 -1:255 1 0] [- H - 0x000e] 
r 1.196837754 _0_ MAC  --- 14 IMEP 34 [0 ffffffff 2 800] ------- [2:255 -1:255 1 0] [- H - 0x000e] 
T 1.196862754 _0_ QRY 9 for 2 (rtreq set)
T 1.196862754 _0_ tora sendQRY 9
s 1.200350164 _0_ RTR  --- 19 IMEP 70 [0 0 0 0] ------- [0:255 -1:255 1 0] [A H O 0x0032] 
s 1.200445164 _0_ MAC  --- 19 IMEP 128 [0 ffffffff 0 800] ------- [0:255 -1:255 1 0] [A H O 0x0032] 
r 1.201469872 _2_ MAC  --- 19 IMEP 70 [0 ffffffff 0 800] ------- [0:255 -1:255 1 0] [A H O 0x0032] 
r 1.201469942 _1_ MAC  --- 19 IMEP 70 [0 ffffffff 0 800] ------- [0:255 -1:255 1 0] [A H O 0x0032] 
T 1.201494872 _2_ QRY 16777225 for 0 (rtreq set)
T 1.201494872 _2_ tora sendQRY 16777225
T 1.201494872 _2_ QRY 9 for 0 (rtreq set)
T 1.201494872 _2_ tora sendQRY 9
s 1.206156031 _2_ RTR  --- 22 IMEP 62 [0 0 0 0] ------- [2:255 -1:255 1 0] [- H O 0x002a] 
s 1.206811031 _2_ MAC  --- 22 IMEP 120 [0 ffffffff 2 800] ------- [2:255 -1:255 1 0] [- H O 0x002a] 
r 1.207771701 _3_ MAC  --- 22 IMEP 62 [0 ffffffff 2 800] ------- [2:255 -1:255 1 0] [- H O 0x002a] 
r 1.207771738 _0_ MAC  --- 22 IMEP 62 [0 ffffffff 2 800] ------- [2:255 -1:255 1 0] [- H O 0x002a] 
T 1.207796738 _0_ tora sendQRY 16777225
s 1.210208995 _0_ RTR  --- 25 IMEP 60 [0 0 0 0] ------- [0:255 -1:255 1 0] [A - O 0x0028] 
s 1.210323995 _0_ MAC  --- 25 IMEP 118 [0 ffffffff 0 800] ------- [0:255 -1:255 1 0] [A - O 0x0028] 
r 1.211268702 _2_ MAC  --- 25 IMEP 60 [0 ffffffff 0 800] ------- [0:255 -1:255 1 0] [A - O 0x0028] 
r 1.211268773 _1_ MAC  --- 25 IMEP 60 [0 ffffffff 0 800] ------- [0:255 -1:255 1 0] [A - O 0x0028] 
s 1.300000000 _3_ RTR  --- 26 IMEP 34 [0 0 0 0] ------- [3:255 -1:255 1 0] [- H - 0x000e] 
s 1.300215000 _3_ MAC  --- 26 IMEP 92 [0 ffffffff 3 800] ------- [3:255 -1:255 1 0] [- H - 0x000e] 
r 1.300951669 _2_ MAC  --- 26 IMEP 34 [0 ffffffff 3 800] ------- [3:255 -1:255 1 0] [- H - 0x000e] 
r 1.300951695 _5_ MAC  --- 26 IMEP 34 [0 ffffffff 3 800] ------- [3:255 -1:255 1 0] [- H - 0x000e] 
T 1.300976669 _2_ QRY 33554441 for 3 (rtreq set)
T 1.300976669 _2_ tora sendQRY 33554441
T 1.300976669 _2_ QRY 16777225 for 3 (rtreq set)
T 1.300976669 _2_ tora sendQRY 16777225
T 1.300976669 _2_ QRY 9 for 3 (rtreq set)
T 1.300976669 _2_ tora sendQRY 9
s 1.302850322 _2_ RTR  --- 33 IMEP 76 [0 0 0 0] ------- [2:255 -1:255 1 0] [- H O 0x0038] 
s 1.303125322 _2_ MAC  --- 33 IMEP 134 [0 ffffffff 2 800] ------- [2:255 -1:255 1 0] [- H O 0x0038] 
r 1.304197991 _3_ MAC  --- 33 IMEP 76 [0 ffffffff 2 800] ------- [2:255 -1:255 1 0] [- H O 0x0038] 
r 1.304198028 _0_ MAC  --- 33 IMEP 76 [0 ffffffff 2 800] ------- [2:255 -1:255 1 0] [- H O 0x0038] 
T 1.304222991 _3_ QRY 9 for 2 (rtreq set)
T 1.304222991 _3_ tora sendQRY 9
T 1.304222991 _3_ QRY 16777225 for 2 (rtreq set)
T 1.304222991 _3_ tora sendQRY 16777225
T 1.304223028 _0_ tora sendQRY 33554441
T 1.304223028 _0_ tora sendQRY 50331657
s 1.304331074 _3_ RTR  --- 39 IMEP 62 [0 0 0 0] ------- [3:255 -1:255 1 0] [- H O 0x002a] 
s 1.304586074 _3_ MAC  --- 39 IMEP 120 [0 ffffffff 3 800] ------- [3:255 -1:255 1 0] [- H O 0x002a] 
s 1.305454063 _0_ RTR  --- 40 IMEP 70 [0 0 0 0] ------- [0:255 -1:255 1 0] [A - O 0x0032] 
r 1.305546743 _2_ MAC  --- 39 IMEP 62 [0 ffffffff 3 800] ------- [3:255 -1:255 1 0] [- H O 0x002a] 
r 1.305546769 _5_ MAC  --- 39 IMEP 62 [0 ffffffff 3 800] ------- [3:255 -1:255 1 0] [- H O 0x002a] 
s 1.306241431 _0_ MAC  --- 40 IMEP 128 [0 ffffffff 0 800] ------- [0:255 -1:255 1 0] [A - O 0x0032] 
r 1.307266138 _2_ MAC  --- 40 IMEP 70 [0 ffffffff 0 800] ------- [0:255 -1:255 1 0] [A - O 0x0032] 
r 1.307266209 _1_ MAC  --- 40 IMEP 70 [0 ffffffff 0 800] ------- [0:255 -1:255 1 0] [A - O 0x0032] 
s 1.314923016 _6_ RTR  --- 41 IMEP 34 [0 0 0 0] ------- [6:255 -1:255 1 0] [- H - 0x000e] 
s 1.315218016 _6_ MAC  --- 41 IMEP 92 [0 ffffffff 6 800] ------- [6:255 -1:255 1 0] [- H - 0x000e] 
r 1.315954507 _4_ MAC  --- 41 IMEP 34 [0 ffffffff 6 800] ------- [6:255 -1:255 1 0] [- H - 0x000e] 
r 1.315954518 _1_ MAC  --- 41 IMEP 34 [0 ffffffff 6 800] ------- [6:255 -1:255 1 0] [- H - 0x000e] 
r 1.315954747 _7_ MAC  --- 41 IMEP 34 [0 ffffffff 6 800] ------- [6:255 -1:255 1 0] [- H - 0x000e] 
T 1.315979518 _1_ QRY 33554441 for 6 (rtreq set)
T 1.315979518 _1_ tora sendQRY 33554441
T 1.315979518 _1_ QRY 16777225 for 6 (rtreq set)
T 1.315979518 _1_ tora sendQRY 16777225
T 1.315979518 _1_ QRY 9 for 6 (rtreq set)
T 1.315979518 _1_ tora sendQRY 9
s 1.316255093 _1_ RTR  --- 48 IMEP 76 [0 0 0 0] ------- [1:255 -1:255 1 0] [- H O 0x0038] 
s 1.316630093 _1_ MAC  --- 48 IMEP 134 [0 ffffffff 1 800] ------- [1:255 -1:255 1 0] [- H O 0x0038] 
r 1.317702595 _6_ MAC  --- 48 IMEP 76 [0 ffffffff 1 800] ------- [1:255 -1:255 1 0] [- H O 0x0038] 
r 1.317702871 _0_ MAC  --- 48 IMEP 76 [0 ffffffff 1 800] ------- [1:255 -1:255 1 0] [- H O 0x0038] 
T 1.317727595 _6_ QRY 9 for 1 (rtreq set)
T 1.317727595 _6_ tora sendQRY 9
T 1.317727871 _0_ tora sendQRY 100663305
s 1.319515149 _0_ RTR  --- 52 IMEP 60 [0 0 0 0] ------- [0:255 -1:255 1 0] [A - O 0x0028] 
s 1.319710149 _0_ MAC  --- 52 IMEP 118 [0 ffffffff 0 800] ------- [0:255 -1:255 1 0] [A - O 0x0028] 
s 1.319794935 _6_ RTR  --- 53 IMEP 42 [0 0 0 0] ------- [6:255 -1:255 1 0] [- - O 0x0016] 
r 1.320654856 _2_ MAC  --- 52 IMEP 60 [0 ffffffff 0 800] ------- [0:255 -1:255 1 0] [A - O 0x0028] 
r 1.320654928 _1_ MAC  --- 52 IMEP 60 [0 ffffffff 0 800] ------- [0:255 -1:255 1 0] [A - O 0x0028] 
s 1.321369323 _6_ MAC  --- 53 IMEP 100 [0 ffffffff 6 800] ------- [6:255 -1:255 1 0] [- - O 0x0016] 
r 1.322169814 _4_ MAC  --- 53 IMEP 42 [0 ffffffff 6 800] ------- [6:255 -1:255 1 0] [- - O 0x0016] 
r 1.322169825 _1_ MAC  --- 53 IMEP 42 [0 ffffffff 6 800] ------- [6:255 -1:255 1 0] [- - O 0x0016] 
r 1.322170054 _7_ MAC  --- 53 IMEP 42 [0 ffffffff 6 800] ------- [6:255 -1:255 1 0] [- - O 0x0016] 
s 1.400000000 _4_ RTR  --- 54 IMEP 34 [0 0 0 0] ------- [4:255 -1:255 1 0] [- H - 0x000e] 
s 1.400275000 _4_ MAC  --- 54 IMEP 92 [0 ffffffff 4 800] ------- [4:255 -1:255 1 0] [- H - 0x000e] 
r 1.401011367 _7_ MAC  --- 54 IMEP 34 [0 ffffffff 4 800] ------- [4:255 -1:255 1 0] [- H - 0x000e] 
r 1.401011490 _6_ MAC  --- 54 IMEP 34 [0 ffffffff 4 800] ------- [4:255 -1:255 1 0] [- H - 0x000e] 
r 1.401011627 _5_ MAC  --- 54 IMEP 34 [0 ffffffff 4 800] ------- [4:255 -1:255 1 0] [- H - 0x000e] 
r 1.401011752 _8_ MAC  --- 54 IMEP 34 [0 ffffffff 4 800] ------- [4:255 -1:255 1 0] [- H - 0x000e] 
T 1.401036490 _6_ QRY 100663305 for 4 (rtreq set)
T 1.401036490 _6_ tora sendQRY 100663305
T 1.401036490 _6_ QRY 16777225 for 4 (rtreq set)
T 1.401036490 _6_ tora sendQRY 16777225
T 1.401036490 _6_ QRY 33554441 for 4 (rtreq set)
T 1.401036490 _6_ tora sendQRY 33554441
T 1.401036490 _6_ QRY 9 for 4 (rtreq set)
T 1.401036490 _6_ tora sendQRY 9
s 1.401918492 _6_ RTR  --- 64 IMEP 86 [0 0 0 0] ------- [6:255 -1:255 1 0] [- H O 0x0042] 
s 1.402113492 _6_ MAC  --- 64 IMEP 144 [0 ffffffff 6 800] ------- [6:255 -1:255 1 0] [- H O 0x0042] 
r 1.403265982 _4_ MAC  --- 64 IMEP 86 [0 ffffffff 6 800] ------- [6:255 -1:255 1 0] [- H O 0x0042] 
r 1.403265994 _1_ MAC  --- 64 IMEP 86 [0 ffffffff 6 800] ------- [6:255 -1:255 1 0] [- H O 0x0042] 
r 1.403266222 _7_ MAC  --- 64 IMEP 86 [0 ffffffff 6 800] ------- [6:255 -1:255 1 0] [- H O 0x0042] 
T 1.403290982 _4_ QRY 16777225 for 6 (rtreq set)
T 1.403290982 _4_ tora sendQRY 16777225
T 1.403290994 _1_ tora sendQRY 100663305
T 1.403290994 _1_ tora sendQRY 67108873
s 1.406851580 _1_ RTR  --- 68 IMEP 56 [0 0 0 0] ------- [1:255 -1:255 1 0] [- - O 0x0024] 
s 1.407366580 _1_ MAC  --- 68 IMEP 114 [0 ffffffff 1 800] ------- [1:255 -1:255 1 0] [- - O 0x0024] 
r 1.408279081 _6_ MAC  --- 68 IMEP 56 [0 ffffffff 1 800] ------- [1:255 -1:255 1 0] [- - O 0x0024] 
r 1.408279358 _0_ MAC  --- 68 IMEP 56 [0 ffffffff 1 800] ------- [1:255 -1:255 1 0] [- - O 0x0024] 
s 1.411311101 _4_ RTR  --- 70 IMEP 52 [0 0 0 0] ------- [4:255 -1:255 1 0] [- H O 0x0020] 
s 1.411686101 _4_ MAC  --- 70 IMEP 110 [0 ffffffff 4 800] ------- [4:255 -1:255 1 0] [- H O 0x0020] 
r 1.412566468 _7_ MAC  --- 70 IMEP 52 [0 ffffffff 4 800] ------- [4:255 -1:255 1 0] [- H O 0x0020] 
r 1.412566591 _6_ MAC  --- 70 IMEP 52 [0 ffffffff 4 800] ------- [4:255 -1:255 1 0] [- H O 0x0020] 
r 1.412566727 _5_ MAC  --- 70 IMEP 52 [0 ffffffff 4 800] ------- [4:255 -1:255 1 0] [- H O 0x0020] 
r 1.412566853 _8_ MAC  --- 70 IMEP 52 [0 ffffffff 4 800] ------- [4:255 -1:255 1 0] [- H O 0x0020] 
s 1.500000000 _5_ RTR  --- 71 IMEP 38 [0 0 0 0] ------- [5:255 -1:255 1 0] [- H - 0x0012] 
s 1.500115000 _5_ MAC  --- 71 IMEP 96 [0 ffffffff 5 800] ------- [5:255 -1:255 1 0] [- H - 0x0012] 
r 1.500883370 _8_ MAC  --- 71 IMEP 38 [0 ffffffff 5 800] ------- [5:255 -1:255 1 0] [- H - 0x0012] 
r 1.500883458 _9_ MAC  --- 71 IMEP 38 [0 ffffffff 5 800] ------- [5:255 -1:255 1 0] [- H - 0x0012] 
r 1.500883624 _4_ MAC  --- 71 IMEP 38 [0 ffffffff 5 800] ------- [5:255 -1:255 1 0] [- H - 0x0012] 
r 1.500883690 _3_ MAC  --- 71 IMEP 38 [0 ffffffff 5 800] ------- [5:255 -1:255 1 0] [- H - 0x0012] 
r 1.500883698 _7_ MAC  --- 71 IMEP 38 [0 ffffffff 5 800] ------- [5:255 -1:255 1 0] [- H - 0x0012] 
T 1.500908624 _4_ QRY 67108873 for 5 (rtreq set)
T 1.500908624 _4_ tora sendQRY 67108873
T 1.500908624 _4_ QRY 33554441 for 5 (rtreq set)
T 1.500908624 _4_ tora sendQRY 33554441
T 1.500908624 _4_ QRY 100663305 for 5 (rtreq set)
T 1.500908624 _4_ tora sendQRY 100663305
T 1.500908624 _4_ QRY 16777225 for 5 (rtreq set)
T 1.500908624 _4_ tora sendQRY 16777225
T 1.500908690 _3_ QRY 50331657 for 5 (rtreq set)
T 1.500908690 _3_ tora sendQRY 50331657
T 1.500908690 _3_ QRY 33554441 for 5 (rtreq set)
T 1.500908690 _3_ tora sendQRY 33554441
T 1.500908690 _3_ QRY 9 for 5 (rtreq set)
T 1.500908690 _3_ tora sendQRY 9
T 1.500908690 _3_ QRY 16777225 for 5 (rtreq set)
T 1.500908690 _3_ tora sendQRY 16777225
s 1.500942193 _3_ RTR  --- 87 IMEP 86 [0 0 0 0] ------- [3:255 -1:255 1 0] [- H O 0x0042] 
s 1.501236548 _4_ RTR  --- 88 IMEP 86 [0 0 0 0] ------- [4:255 -1:255 1 0] [- H O 0x0042] 
s 1.501337193 _3_ MAC  --- 87 IMEP 144 [0 ffffffff 3 800] ------- [3:255 -1:255 1 0] [- H O 0x0042] 
r 1.502489861 _2_ MAC  --- 87 IMEP 86 [0 ffffffff 3 800] ------- [3:255 -1:255 1 0] [- H O 0x0042] 
r 1.502489883 _5_ MAC  --- 87 IMEP 86 [0 ffffffff 3 800] ------- [3:255 -1:255 1 0] [- H O 0x0042] 
T 1.502514861 _2_ tora sendQRY 50331657
T 1.502514861 _2_ tora sendQRY 83886089
T 1.502514883 _5_ QRY 100663305 for 3 (rtreq set)
T 1.502514883 _5_ tora sendQRY 100663305
T 1.502514883 _5_ QRY 33554441 for 3 (rtreq set)
T 1.502514883 _5_ tora sendQRY 33554441
T 1.502514883 _5_ QRY 9 for 3 (rtreq set)
T 1.502514883 _5_ tora sendQRY 9
s 1.503304129 _4_ MAC  --- 88 IMEP 144 [0 ffffffff 4 800] ------- [4:255 -1:255 1 0] [- H O 0x0042] 
r 1.504456496 _7_ MAC  --- 88 IMEP 86 [0 ffffffff 4 800] ------- [4:255 -1:255 1 0] [- H O 0x0042] 
r 1.504456619 _6_ MAC  --- 88 IMEP 86 [0 ffffffff 4 800] ------- [4:255 -1:255 1 0] [- H O 0x0042] 
r 1.504456753 _5_ MAC  --- 88 IMEP 86 [0 ffffffff 4 800] ------- [4:255 -1:255 1 0] [- H O 0x0042] 
r 1.504456881 _8_ MAC  --- 88 IMEP 86 [0 ffffffff 4 800] ------- [4:255 -1:255 1 0] [- H O 0x0042] 
T 1.504481619 _6_ tora sendQRY 67108873
T 1.504481619 _6_ tora sendQRY 83886089
T 1.504481753 _5_ QRY 83886089 for 4 (rtreq set)
T 1.504481753 _5_ tora sendQRY 83886089
T 1.504481753 _5_ QRY 50331657 for 4 (rtreq set)
T 1.504481753 _5_ tora sendQRY 50331657
T 1.504481753 _5_ QRY 100663305 for 4 (rtreq set)
T 1.504481753 _5_ tora sendQRY 100663305
T 1.504481753 _5_ QRY 33554441 for 4 (rtreq set)
T 1.504481753 _5_ tora sendQRY 33554441
T 1.504481753 _5_ QRY 9 for 4 (rtreq set)
T 1.504481753 _5_ tora sendQRY 9
T 1.504481753 _5_ tora sendQRY 67108873
s 1.504641591 _6_ RTR  --- 102 IMEP 56 [0 0 0 0] ------- [6:255 -1:255 1 0] [- - O 0x0024] 
s 1.504736591 _6_ MAC  --- 102 IMEP 114 [0 ffffffff 6 800] ------- [6:255 -1:255 1 0] [- - O 0x0024] 
r 1.505649081 _4_ MAC  --- 102 IMEP 56 [0 ffffffff 6 800] ------- [6:255 -1:255 1 0] [- - O 0x0024] 
r 1.505649093 _1_ MAC  --- 102 IMEP 56 [0 ffffffff 6 800] ------- [6:255 -1:255 1 0] [- - O 0x0024] 
r 1.505649321 _7_ MAC  --- 102 IMEP 56 [0 ffffffff 6 800] ------- [6:255 -1:255 1 0] [- - O 0x0024] 
s 1.505673524 _5_ RTR  --- 103 IMEP 140 [0 0 0 0] ------- [5:255 -1:255 1 0] [- H O 0x0078] 
s 1.506443687 _5_ MAC  --- 103 IMEP 198 [0 ffffffff 5 800] ------- [5:255 -1:255 1 0] [- H O 0x0078] 
r 1.508028057 _8_ MAC  --- 103 IMEP 140 [0 ffffffff 5 800] ------- [5:255 -1:255 1 0] [- H O 0x0078] 
r 1.508028145 _9_ MAC  --- 103 IMEP 140 [0 ffffffff 5 800] ------- [5:255 -1:255 1 0] [- H O 0x0078] 
r 1.508028311 _4_ MAC  --- 103 IMEP 140 [0 ffffffff 5 800] ------- [5:255 -1:255 1 0] [- H O 0x0078] 
r 1.508028377 _3_ MAC  --- 103 IMEP 140 [0 ffffffff 5 800] ------- [5:255 -1:255 1 0] [- H O 0x0078] 
r 1.508028384 _7_ MAC  --- 103 IMEP 140 [0 ffffffff 5 800] ------- [5:255 -1:255 1 0] [- H O 0x0078] 
T 1.508053311 _4_ tora sendQRY 9
T 1.508053311 _4_ tora sendQRY 83886089
T 1.508053311 _4_ tora sendQRY 50331657
T 1.508053377 _3_ tora sendQRY 100663305
T 1.508053377 _3_ tora sendQRY 83886089
T 1.508053377 _3_ tora sendQRY 67108873
s 1.508668427 _2_ RTR  --- 110 IMEP 56 [0 0 0 0] ------- [2:255 -1:255 1 0] [- - O 0x0024] 
s 1.508698267 _3_ RTR  --- 111 IMEP 66 [0 0 0 0] ------- [3:255 -1:255 1 0] [- - O 0x002e] 
s 1.508883427 _2_ MAC  --- 110 IMEP 114 [0 ffffffff 2 800] ------- [2:255 -1:255 1 0] [- - O 0x0024] 
r 1.509796095 _3_ MAC  --- 110 IMEP 56 [0 ffffffff 2 800] ------- [2:255 -1:255 1 0] [- - O 0x0024] 
r 1.509796133 _0_ MAC  --- 110 IMEP 56 [0 ffffffff 2 800] ------- [2:255 -1:255 1 0] [- - O 0x0024] 
s 1.509986095 _3_ MAC  --- 111 IMEP 124 [0 ffffffff 3 800] ------- [3:255 -1:255 1 0] [- - O 0x002e] 
r 1.510978763 _2_ MAC  --- 111 IMEP 66 [0 ffffffff 3 800] ------- [3:255 -1:255 1 0] [- - O 0x002e] 
r 1.510978785 _5_ MAC  --- 111 IMEP 66 [0 ffffffff 3 800] ------- [3:255 -1:255 1 0] [- - O 0x002e] 
T 1.511003763 _2_ tora sendQRY 100663305
s 1.514282210 _4_ RTR  --- 114 IMEP 66 [0 0 0 0] ------- [4:255 -1:255 1 0] [- - O 0x002e] 
s 1.514897210 _4_ MAC  --- 114 IMEP 124 [0 ffffffff 4 800] ------- [4:255 -1:255 1 0] [- - O 0x002e] 
r 1.515889577 _7_ MAC  --- 114 IMEP 66 [0 ffffffff 4 800] ------- [4:255 -1:255 1 0] [- - O 0x002e] 
r 1.515889700 _6_ MAC  --- 114 IMEP 66 [0 ffffffff 4 800] ------- [4:255 -1:255 1 0] [- - O 0x002e] 
r 1.515889834 _5_ MAC  --- 114 IMEP 66 [0 ffffffff 4 800] ------- [4:255 -1:255 1 0] [- - O 0x002e] 
r 1.515889962 _8_ MAC  --- 114 IMEP 66 [0 ffffffff 4 800] ------- [4:255 -1:255 1 0] [- - O 0x002e] 
s 1.518065844 _2_ RTR  --- 115 IMEP 46 [0 0 0 0] ------- [2:255 -1:255 1 0] [- - O 0x001a] 
s 1.518720844 _2_ MAC  --- 115 IMEP 104 [0 ffffffff 2 800] ------- [2:255 -1:255 1 0] [- - O 0x001a] 
r 1.519553512 _3_ MAC  --- 115 IMEP 46 [0 ffffffff 2 800] ------- [2:255 -1:255 1 0] [- - O 0x001a] 
r 1.519553550 _0_ MAC  --- 115 IMEP 46 [0 ffffffff 2 800] ------- [2:255 -1:255 1 0] [- - O 0x001a] 
s 1.544478457 _7_ RTR  --- 117 IMEP 42 [0 0 0 0] ------- [7:255 -1:255 1 0] [- H - 0x0016] 
s 1.544773457 _7_ MAC  --- 117 IMEP 100 [0 ffffffff 7 800] ------- [7:255 -1:255 1 0] [- H - 0x0016] 
r 1.545573824 _4_ MAC  --- 117 IMEP 42 [0 ffffffff 7 800] ------- [7:255 -1:255 1 0] [- H - 0x0016] 
r 1.545574082 _8_ MAC  --- 117 IMEP 42 [0 ffffffff 7 800] ------- [7:255 -1:255 1 0] [- H - 0x0016] 
r 1.545574154 _5_ MAC  --- 117 IMEP 42 [0 ffffffff 7 800] ------- [7:255 -1:255 1 0] [- H - 0x0016] 
r 1.545574187 _6_ MAC  --- 117 IMEP 42 [0 ffffffff 7 800] ------- [7:255 -1:255 1 0] [- H - 0x0016] 
T 1.545598824 _4_ QRY 50331657 for 7 (rtreq set)
T 1.545598824 _4_ tora sendQRY 50331657
T 1.545598824 _4_ QRY 83886089 for 7 (rtreq set)
T 1.545598824 _4_ tora sendQRY 83886089
T 1.545598824 _4_ QRY 9 for 7 (rtreq set)
T 1.545598824 _4_ tora sendQRY 9
T 1.545598824 _4_ QRY 67108873 for 7 (rtreq set)
T 1.545598824 _4_ tora sendQRY 67108873
T 1.545598824 _4_ QRY 33554441 for 7 (rtreq set)
T 1.545598824 _4_ tora sendQRY 33554441
T 1.545598824 _4_ QRY 100663305 for 7 (rtreq set)
T 1.545598824 _4_ tora sendQRY 100663305
T 1.545598824 _4_ QRY 16777225 for 7 (rtreq set)
T 1.545598824 _4_ tora sendQRY 16777225
T 1.545599154 _5_ QRY 67108873 for 7 (rtreq set)
T 1.545599154 _5_ tora sendQRY 67108873
T 1.545599154 _5_ QRY 83886089 for 7 (rtreq set)
T 1.545599154 _5_ tora sendQRY 83886089
T 1.545599154 _5_ QRY 50331657 for 7 (rtreq set)
T 1.545599154 _5_ tora sendQRY 50331657
T 1.545599154 _5_ QRY 100663305 for 7 (rtreq set)
T 1.545599154 _5_ tora sendQRY 100663305
T 1.545599154 _5_ QRY 33554441 for 7 (rtreq set)
T 1.545599154 _5_ tora sendQRY 33554441
T 1.545599154 _5_ QRY 9 for 7 (rtreq set)
T 1.545599154 _5_ tora sendQRY 9
T 1.545599187 _6_ QRY 83886089 for 7 (rtreq set)
T 1.545599187 _6_ tora sendQRY 83886089
T 1.545599187 _6_ QRY 67108873 for 7 (rtreq set)
T 1.545599187 _6_ tora sendQRY 67108873
T 1.545599187 _6_ QRY 100663305 for 7 (rtreq set)
T 1.545599187 _6_ tora sendQRY 100663305
T 1.545599187 _6_ QRY 16777225 for 7 (rtreq set)
T 1.545599187 _6_ tora sendQRY 16777225
T 1.545599187 _6_ QRY 33554441 for 7 (rtreq set)
T 1.545599187 _6_ tora sendQRY 33554441
T 1.545599187 _6_ QRY 9 for 7 (rtreq set)
T 1.545599187 _6_ tora sendQRY 9
s 1.546264005 _5_ RTR  --- 141 IMEP 110 [0 0 0 0] ------- [5:255 -1:255 1 0] [- H O 0x005a] 
s 1.546419005 _5_ MAC  --- 141 IMEP 168 [0 ffffffff 5 800] ------- [5:255 -1:255 1 0] [- H O 0x005a] 
s 1.547658012 _6_ RTR  --- 142 IMEP 110 [0 0 0 0] ------- [6:255 -1:255 1 0] [- H O 0x005a] 
r 1.547763376 _8_ MAC  --- 141 IMEP 110 [0 ffffffff 5 800] ------- [5:255 -1:255 1 0] [- H O 0x005a] 
r 1.547763464 _9_ MAC  --- 141 IMEP 110 [0 ffffffff 5 800] ------- [5:255 -1:255 1 0] [- H O 0x005a] 
r 1.547763628 _4_ MAC  --- 141 IMEP 110 [0 ffffffff 5 800] ------- [5:255 -1:255 1 0] [- H O 0x005a] 
r 1.547763694 _3_ MAC  --- 141 IMEP 110 [0 ffffffff 5 800] ------- [5:255 -1:255 1 0] [- H O 0x005a] 
r 1.547763702 _7_ MAC  --- 141 IMEP 110 [0 ffffffff 5 800] ------- [5:255 -1:255 1 0] [- H O 0x005a] 
T 1.547788628 _4_ tora sendQRY 117440521
T 1.547788694 _3_ tora sendQRY 117440521
T 1.547788702 _7_ QRY 50331657 for 5 (rtreq set)
T 1.547788702 _7_ tora sendQRY 50331657
T 1.547788702 _7_ QRY 9 for 5 (rtreq set)
T 1.547788702 _7_ tora sendQRY 9
T 1.547788702 _7_ QRY 83886089 for 5 (rtreq set)
T 1.547788702 _7_ tora sendQRY 83886089
T 1.547788702 _7_ QRY 67108873 for 5 (rtreq set)
T 1.547788702 _7_ tora sendQRY 67108873
T 1.547788702 _7_ QRY 33554441 for 5 (rtreq set)
T 1.547788702 _7_ tora sendQRY 33554441
T 1.547788702 _7_ QRY 100663305 for 5 (rtreq set)
T 1.547788702 _7_ tora sendQRY 100663305
T 1.547788702 _7_ QRY 16777225 for 5 (rtreq set)
T 1.547788702 _7_ tora sendQRY 16777225
s 1.547888592 _4_ RTR  --- 152 IMEP 130 [0 0 0 0] ------- [4:255 -1:255 1 0] [- H O 0x006e] 
s 1.548204432 _7_ RTR  --- 153 IMEP 102 [0 0 0 0] ------- [7:255 -1:255 1 0] [- - O 0x0052] 
s 1.548523592 _4_ MAC  --- 152 IMEP 188 [0 ffffffff 4 800] ------- [4:255 -1:255 1 0] [- H O 0x006e] 
r 1.550027959 _7_ MAC  --- 152 IMEP 130 [0 ffffffff 4 800] ------- [4:255 -1:255 1 0] [- H O 0x006e] 
r 1.550028083 _6_ MAC  --- 152 IMEP 130 [0 ffffffff 4 800] ------- [4:255 -1:255 1 0] [- H O 0x006e] 
r 1.550028216 _5_ MAC  --- 152 IMEP 130 [0 ffffffff 4 800] ------- [4:255 -1:255 1 0] [- H O 0x006e] 
r 1.550028345 _8_ MAC  --- 152 IMEP 130 [0 ffffffff 4 800] ------- [4:255 -1:255 1 0] [- H O 0x006e] 
T 1.550052959 _7_ QRY 117440521 for 4 (rtreq set)
T 1.550052959 _7_ tora sendQRY 117440521
T 1.550052959 _7_ QRY 50331657 for 4 (rtreq set)
T 1.550052959 _7_ tora sendQRY 50331657
T 1.550052959 _7_ QRY 9 for 4 (rtreq set)
T 1.550052959 _7_ tora sendQRY 9
T 1.550052959 _7_ QRY 83886089 for 4 (rtreq set)
T 1.550052959 _7_ tora sendQRY 83886089
T 1.550052959 _7_ QRY 67108873 for 4 (rtreq set)
T 1.550052959 _7_ tora sendQRY 67108873
T 1.550052959 _7_ QRY 33554441 for 4 (rtreq set)
T 1.550052959 _7_ tora sendQRY 33554441
T 1.550052959 _7_ QRY 100663305 for 4 (rtreq set)
T 1.550052959 _7_ tora sendQRY 100663305
T 1.550052959 _7_ QRY 16777225 for 4 (rtreq set)
T 1.550052959 _7_ tora sendQRY 16777225
T 1.550053083 _6_ tora sendQRY 50331657
T 1.550053083 _6_ tora sendQRY 117440521
T 1.550053216 _5_ tora sendQRY 16777225
T 1.550053216 _5_ tora sendQRY 117440521
s 1.550157959 _7_ MAC  --- 153 IMEP 160 [0 ffffffff 7 800] ------- [7:255 -1:255 1 0] [- - O 0x0052] 
s 1.550606426 _7_ RTR  --- 166 IMEP 116 [0 0 0 0] ------- [7:255 -1:255 1 0] [- - O 0x0060] 
s 1.551351498 _6_ RTR  --- 167 IMEP 60 [0 0 0 0] ------- [6:255 -1:255 1 0] [- - O 0x0028] 
r 1.551438326 _4_ MAC  --- 153 IMEP 102 [0 ffffffff 7 800] ------- [7:255 -1:255 1 0] [- - O 0x0052] 
r 1.551438585 _8_ MAC  --- 153 IMEP 102 [0 ffffffff 7 800] ------- [7:255 -1:255 1 0] [- - O 0x0052] 
r 1.551438657 _5_ MAC  --- 153 IMEP 102 [0 ffffffff 7 800] ------- [7:255 -1:255 1 0] [- - O 0x0052] 
r 1.551438690 _6_ MAC  --- 153 IMEP 102 [0 ffffffff 7 800] ------- [7:255 -1:255 1 0] [- - O 0x0052] 
s 1.551628690 _6_ MAC  --- 142 IMEP 168 [0 ffffffff 6 800] ------- [6:255 -1:255 1 0] [- H O 0x005a] 
r 1.552973180 _4_ MAC  --- 142 IMEP 110 [0 ffffffff 6 800] ------- [6:255 -1:255 1 0] [- H O 0x005a] 
r 1.552973192 _1_ MAC  --- 142 IMEP 110 [0 ffffffff 6 800] ------- [6:255 -1:255 1 0] [- H O 0x005a] 
r 1.552973420 _7_ MAC  --- 142 IMEP 110 [0 ffffffff 6 800] ------- [6:255 -1:255 1 0] [- H O 0x005a] 
T 1.552998192 _1_ tora sendQRY 83886089
T 1.552998192 _1_ tora sendQRY 117440521
T 1.552998420 _7_ QRY 117440521 for 6 (rtreq set)
T 1.552998420 _7_ tora sendQRY 117440521
T 1.552998420 _7_ QRY 50331657 for 6 (rtreq set)
T 1.552998420 _7_ tora sendQRY 50331657
T 1.552998420 _7_ QRY 9 for 6 (rtreq set)
T 1.552998420 _7_ tora sendQRY 9
T 1.552998420 _7_ QRY 83886089 for 6 (rtreq set)
T 1.552998420 _7_ tora sendQRY 83886089
T 1.552998420 _7_ QRY 67108873 for 6 (rtreq set)
T 1.552998420 _7_ tora sendQRY 67108873
T 1.552998420 _7_ QRY 33554441 for 6 (rtreq set)
T 1.552998420 _7_ tora sendQRY 33554441
T 1.552998420 _7_ QRY 100663305 for 6 (rtreq set)
T 1.552998420 _7_ tora sendQRY 100663305
T 1.552998420 _7_ QRY 16777225 for 6 (rtreq set)
T 1.552998420 _7_ tora sendQRY 16777225
s 1.553033473 _1_ RTR  --- 178 IMEP 56 [0 0 0 0] ------- [1:255 -1:255 1 0] [- - O 0x0024] 
s 1.553122690 _6_ MAC  --- 167 IMEP 118 [0 ffffffff 6 800] ------- [6:255 -1:255 1 0] [- - O 0x0028] 
s 1.553197763 _7_ RTR  --- 179 IMEP 120 [0 0 0 0] ------- [7:255 -1:255 1 0] [- - O 0x0064] 
s 1.553905975 _3_ RTR  --- 180 IMEP 46 [0 0 0 0] ------- [3:255 -1:255 1 0] [- - O 0x001a] 
r 1.554067180 _4_ MAC  --- 167 IMEP 60 [0 ffffffff 6 800] ------- [6:255 -1:255 1 0] [- - O 0x0028] 
r 1.554067192 _1_ MAC  --- 167 IMEP 60 [0 ffffffff 6 800] ------- [6:255 -1:255 1 0] [- - O 0x0028] 
r 1.554067420 _7_ MAC  --- 167 IMEP 60 [0 ffffffff 6 800] ------- [6:255 -1:255 1 0] [- - O 0x0028] 
T 1.554092192 _1_ tora sendQRY 50331657
s 1.554223510 _5_ RTR  --- 182 IMEP 60 [0 0 0 0] ------- [5:255 -1:255 1 0] [- - O 0x0028] 
s 1.554257420 _7_ MAC  --- 166 IMEP 174 [0 ffffffff 7 800] ------- [7:255 -1:255 1 0] [- - O 0x0060] 
r 1.555649787 _4_ MAC  --- 166 IMEP 116 [0 ffffffff 7 800] ------- [7:255 -1:255 1 0] [- - O 0x0060] 
r 1.555650046 _8_ MAC  --- 166 IMEP 116 [0 ffffffff 7 800] ------- [7:255 -1:255 1 0] [- - O 0x0060] 
r 1.555650117 _5_ MAC  --- 166 IMEP 116 [0 ffffffff 7 800] ------- [7:255 -1:255 1 0] [- - O 0x0060] 
r 1.555650150 _6_ MAC  --- 166 IMEP 116 [0 ffffffff 7 800] ------- [7:255 -1:255 1 0] [- - O 0x0060] 
s 1.556039420 _7_ MAC  --- 179 IMEP 178 [0 ffffffff 7 800] ------- [7:255 -1:255 1 0] [- - O 0x0064] 
s 1.557171678 _1_ RTR  --- 183 IMEP 46 [0 0 0 0] ------- [1:255 -1:255 1 0] [- - O 0x001a] 
r 1.557463787 _4_ MAC  --- 179 IMEP 120 [0 ffffffff 7 800] ------- [7:255 -1:255 1 0] [- - O 0x0064] 
r 1.557464046 _8_ MAC  --- 179 IMEP 120 [0 ffffffff 7 800] ------- [7:255 -1:255 1 0] [- - O 0x0064] 
r 1.557464117 _5_ MAC  --- 179 IMEP 120 [0 ffffffff 7 800] ------- [7:255 -1:255 1 0] [- - O 0x0064] 
r 1.557464150 _6_ MAC  --- 179 IMEP 120 [0 ffffffff 7 800] ------- [7:255 -1:255 1 0] [- - O 0x0064] 
s 1.557534117 _5_ MAC  --- 182 IMEP 118 [0 ffffffff 5 800] ------- [5:255 -1:255 1 0] [- - O 0x0028] 
r 1.558478489 _8_ MAC  --- 182 IMEP 60 [0 ffffffff 5 800] ------- [5:255 -1:255 1 0] [- - O 0x0028] 
r 1.558478577 _9_ MAC  --- 182 IMEP 60 [0 ffffffff 5 800] ------- [5:255 -1:255 1 0] [- - O 0x0028] 
r 1.558478741 _4_ MAC  --- 182 IMEP 60 [0 ffffffff 5 800] ------- [5:255 -1:255 1 0] [- - O 0x0028] 
r 1.558478806 _3_ MAC  --- 182 IMEP 60 [0 ffffffff 5 800] ------- [5:255 -1:255 1 0] [- - O 0x0028] 
r 1.558478815 _7_ MAC  --- 182 IMEP 60 [0 ffffffff 5 800] ------- [5:255 -1:255 1 0] [- - O 0x0028] 
s 1.558888806 _3_ MAC  --- 180 IMEP 104 [0 ffffffff 3 800] ------- [3:255 -1:255 1 0] [- - O 0x001a] 
r 1.559721474 _2_ MAC  --- 180 IMEP 46 [0 ffffffff 3 800] ------- [3:255 -1:255 1 0] [- - O 0x001a] 
r 1.559721495 _5_ MAC  --- 180 IMEP 46 [0 ffffffff 3 800] ------- [3:255 -1:255 1 0] [- - O 0x001a] 
s 1.560256182 _1_ MAC  --- 178 IMEP 114 [0 ffffffff 1 800] ------- [1:255 -1:255 1 0] [- - O 0x0024] 
r 1.561168684 _6_ MAC  --- 178 IMEP 56 [0 ffffffff 1 800] ------- [1:255 -1:255 1 0] [- - O 0x0024] 
r 1.561168960 _0_ MAC  --- 178 IMEP 56 [0 ffffffff 1 800] ------- [1:255 -1:255 1 0] [- - O 0x0024] 
T 1.561193960 _0_ tora sendQRY 83886089
s 1.561678182 _1_ MAC  --- 183 IMEP 104 [0 ffffffff 1 800] ------- [1:255 -1:255 1 0] [- - O 0x001a] 
r 1.562510684 _6_ MAC  --- 183 IMEP 46 [0 ffffffff 1 800] ------- [1:255 -1:255 1 0] [- - O 0x001a] 
r 1.562510960 _0_ MAC  --- 183 IMEP 46 [0 ffffffff 1 800] ------- [1:255 -1:255 1 0] [- - O 0x001a] 
s 1.565969565 _0_ RTR  --- 187 IMEP 92 [0 0 0 0] ------- [0:255 -1:255 1 0] [A - O 0x0048] 
s 1.566464565 _0_ MAC  --- 187 IMEP 150 [0 ffffffff 0 800] ------- [0:255 -1:255 1 0] [A - O 0x0048] 
r 1.567665271 _2_ MAC  --- 187 IMEP 92 [0 ffffffff 0 800] ------- [0:255 -1:255 1 0] [A - O 0x0048] 
r 1.567665343 _1_ MAC  --- 187 IMEP 92 [0 ffffffff 0 800] ------- [0:255 -1:255 1 0] [A - O 0x0048] 
s 1.609400014 _0_ RTR  --- 191 IMEP 42 [0 0 0 0] ------- [0:255 -1:255 1 0] [- - O 0x0016] 
s 1.609875014 _0_ MAC  --- 191 IMEP 100 [0 ffffffff 0 800] ------- [0:255 -1:255 1 0] [- - O 0x0016] 
r 1.610675719 _2_ MAC  --- 191 IMEP 42 [0 ffffffff 0 800] ------- [0:255 -1:255 1 0] [- - O 0x0016] 
r 1.610675792 _1_ MAC  --- 191 IMEP 42 [0 ffffffff 0 800] ------- [0:255 -1:255 1 0] [- - O 0x0016] 
s 1.638501383 _8_ RTR  --- 192 IMEP 42 [0 0 0 0] ------- [8:255 -1:255 1 0] [- H - 0x0016] 
s 1.638596383 _8_ MAC  --- 192 IMEP 100 [0 ffffffff 8 800] ------- [8:255 -1:255 1 0] [- H - 0x0016] 
r 1.639396756 _5_ MAC  --- 192 IMEP 42 [0 ffffffff 8 800] ------- [8:255 -1:255 1 0] [- H - 0x0016] 
r 1.639396820 _9_ MAC  --- 192 IMEP 42 [0 ffffffff 8 800] ------- [8:255 -1:255 1 0] [- H - 0x0016] 
r 1.639397008 _7_ MAC  --- 192 IMEP 42 [0 ffffffff 8 800] ------- [8:255 -1:255 1 0] [- H - 0x0016] 
r 1.639397135 _4_ MAC  --- 192 IMEP 42 [0 ffffffff 8 800] ------- [8:255 -1:255 1 0] [- H - 0x0016] 
T 1.639421756 _5_ QRY 117440521 for 8 (rtreq set)
T 1.639421756 _5_ tora sendQRY 117440521
T 1.639421756 _5_ QRY 16777225 for 8 (rtreq set)
T 1.639421756 _5_ tora sendQRY 16777225
T 1.639421756 _5_ QRY 67108873 for 8 (rtreq set)
T 1.639421756 _5_ tora sendQRY 67108873
T 1.639421756 _5_ QRY 83886089 for 8 (rtreq set)
T 1.639421756 _5_ tora sendQRY 83886089
T 1.639421756 _5_ QRY 50331657 for 8 (rtreq set)
T 1.639421756 _5_ tora sendQRY 50331657
T 1.639421756 _5_ QRY 100663305 for 8 (rtreq set)
T 1.639421756 _5_ tora sendQRY 100663305
T 1.639421756 _5_ QRY 33554441 for 8 (rtreq set)
T 1.639421756 _5_ tora sendQRY 33554441
T 1.639421756 _5_ QRY 9 for 8 (rtreq set)
T 1.639421756 _5_ tora sendQRY 9
T 1.639422008 _7_ QRY 117440521 for 8 (rtreq set)
T 1.639422008 _7_ tora sendQRY 117440521