n -t * -s 0  -x 1202 -y 1698 -Z 0 -z 20  -v circle -c black
n -t * -s 1  -x 1372 -y 1538 -Z 0 -z 20  -v circle -c black
n -t * -s 2  -x 1361 -y 1839 -Z 0 -z 20  -v circle -c black
n -t * -s 3  -x 1549 -y 1911 -Z 0 -z 20  -v circle -c black
n -t * -s 4  -x 1636 -y 1644 -Z 0 -z 20  -v circle -c black
n -t * -s 5  -x 1733 -y 1808 -Z 0 -z 20  -v circle -c black
n -t * -s 6  -x 1522 -y 1551 -Z 0 -z 20  -v circle -c black
n -t * -s 7  -x 1736 -y 1598 -Z 0 -z 20  -v circle -c black
n -t * -s 8  -x 1829 -y 1761 -Z 0 -z 20  -v circle -c black
n -t * -s 9  -x 1836 -y 1892 -Z 0 -z 20  -v circle -c black
V -t * -v 1.0a5 -a 0
W -t * -x 2453 -y 1939
A -t * -n 1 -p 0 -o 0x7fffffff -c 30 -a 1
A -t * -h 1 -m 1073741823 -s 0
n -t 1.000000 -s 2 -x 1361.000000 -y 1839.000000 -U 5.368755 -V -8.436615 -T 11.734564
n -t 1.000000 -s 5 -x 1733.000000 -y 1808.000000 -U -9.848752 -V -1.732651 -T 10.965856
+ -t 1.000000000 -s 0 -d -1 -p tcp -e 40 -c 2 -a 0 -i 0 -k AGT 
- -t 1.000000000 -s 0 -d -1 -p tcp -e 40 -c 2 -a 0 -i 0 -k AGT
h -t 1.000000000 -s 0 -d -1 -p tcp -e 40 -c 2 -a 0 -i 0 -k AGT
+ -t 1.000000000 -s 0 -d -1 -p IMEP -e 38 -c 2 -a 0 -i 2 -k RTR 
- -t 1.000000000 -s 0 -d -1 -p IMEP -e 38 -c 2 -a 0 -i 2 -k RTR
h -t 1.000000000 -s 0 -d -1 -p IMEP -e 38 -c 2 -a 0 -i 2 -k RTR
+ -t 1.000635000 -s 0 -d -1 -p IMEP -e 96 -c 2 -a 0 -i 2 -k MAC 
- -t 1.000635000 -s 0 -d -1 -p IMEP -e 96 -c 2 -a 0 -i 2 -k MAC
h -t 1.000635000 -s 0 -d -1 -p IMEP -e 96 -c 2 -a 0 -i 2 -k MAC
r -t 1.001403708 -s 2 -d -1 -p IMEP -e 38 -c 2 -a 0 -i 2 -k MAC
r -t 1.001403778 -s 1 -d -1 -p IMEP -e 38 -c 2 -a 0 -i 2 -k MAC
+ -t 1.100000000 -s 1 -d -1 -p IMEP -e 34 -c 2 -a 0 -i 5 -k RTR 
- -t 1.100000000 -s 1 -d -1 -p IMEP -e 34 -c 2 -a 0 -i 5 -k RTR
h -t 1.100000000 -s 1 -d -1 -p IMEP -e 34 -c 2 -a 0 -i 5 -k RTR
+ -t 1.100275000 -s 1 -d -1 -p IMEP -e 92 -c 2 -a 0 -i 5 -k MAC 
- -t 1.100275000 -s 1 -d -1 -p IMEP -e 92 -c 2 -a 0 -i 5 -k MAC
h -t 1.100275000 -s 1 -d -1 -p IMEP -e 92 -c 2 -a 0 -i 5 -k MAC
r -t 1.101011502 -s 6 -d -1 -p IMEP -e 34 -c 2 -a 0 -i 5 -k MAC
r -t 1.101011778 -s 0 -d -1 -p IMEP -e 34 -c 2 -a 0 -i 5 -k MAC
+ -t 1.109400014 -s 0 -d -1 -p IMEP -e 52 -c 2 -a 0 -i 10 -k RTR 
- -t 1.109400014 -s 0 -d -1 -p IMEP -e 52 -c 2 -a 0 -i 10 -k RTR
h -t 1.109400014 -s 0 -d -1 -p IMEP -e 52 -c 2 -a 0 -i 10 -k RTR
+ -t 1.109515014 -s 0 -d -1 -p IMEP -e 110 -c 2 -a 0 -i 10 -k MAC 
- -t 1.109515014 -s 0 -d -1 -p IMEP -e 110 -c 2 -a 0 -i 10 -k MAC
h -t 1.109515014 -s 0 -d -1 -p IMEP -e 110 -c 2 -a 0 -i 10 -k MAC
r -t 1.110395721 -s 2 -d -1 -p IMEP -e 52 -c 2 -a 0 -i 10 -k MAC
r -t 1.110395792 -s 1 -d -1 -p IMEP -e 52 -c 2 -a 0 -i 10 -k MAC
+ -t 1.116821468 -s 1 -d -1 -p IMEP -e 52 -c 2 -a 0 -i 12 -k RTR 
- -t 1.116821468 -s 1 -d -1 -p IMEP -e 52 -c 2 -a 0 -i 12 -k RTR
h -t 1.116821468 -s 1 -d -1 -p IMEP -e 52 -c 2 -a 0 -i 12 -k RTR
+ -t 1.117256468 -s 1 -d -1 -p IMEP -e 110 -c 2 -a 0 -i 12 -k MAC 
- -t 1.117256468 -s 1 -d -1 -p IMEP -e 110 -c 2 -a 0 -i 12 -k MAC
h -t 1.117256468 -s 1 -d -1 -p IMEP -e 110 -c 2 -a 0 -i 12 -k MAC
r -t 1.118136970 -s 6 -d -1 -p IMEP -e 52 -c 2 -a 0 -i 12 -k MAC
r -t 1.118137246 -s 0 -d -1 -p IMEP -e 52 -c 2 -a 0 -i 12 -k MAC
+ -t 1.195546047 -s 2 -d -1 -p IMEP -e 34 -c 2 -a 0 -i 14 -k RTR 
- -t 1.195546047 -s 2 -d -1 -p IMEP -e 34 -c 2 -a 0 -i 14 -k RTR
h -t 1.195546047 -s 2 -d -1 -p IMEP -e 34 -c 2 -a 0 -i 14 -k RTR
+ -t 1.196101047 -s 2 -d -1 -p IMEP -e 92 -c 2 -a 0 -i 14 -k MAC 
- -t 1.196101047 -s 2 -d -1 -p IMEP -e 92 -c 2 -a 0 -i 14 -k MAC
h -t 1.196101047 -s 2 -d -1 -p IMEP -e 92 -c 2 -a 0 -i 14 -k MAC
r -t 1.196837716 -s 3 -d -1 -p IMEP -e 34 -c 2 -a 0 -i 14 -k MAC
r -t 1.196837754 -s 0 -d -1 -p IMEP -e 34 -c 2 -a 0 -i 14 -k MAC
+ -t 1.200350164 -s 0 -d -1 -p IMEP -e 70 -c 2 -a 0 -i 19 -k RTR 
- -t 1.200350164 -s 0 -d -1 -p IMEP -e 70 -c 2 -a 0 -i 19 -k RTR
h -t 1.200350164 -s 0 -d -1 -p IMEP -e 70 -c 2 -a 0 -i 19 -k RTR
+ -t 1.200445164 -s 0 -d -1 -p IMEP -e 128 -c 2 -a 0 -i 19 -k MAC 
- -t 1.200445164 -s 0 -d -1 -p IMEP -e 128 -c 2 -a 0 -i 19 -k MAC
h -t 1.200445164 -s 0 -d -1 -p IMEP -e 128 -c 2 -a 0 -i 19 -k MAC
r -t 1.201469872 -s 2 -d -1 -p IMEP -e 70 -c 2 -a 0 -i 19 -k MAC
r -t 1.201469942 -s 1 -d -1 -p IMEP -e 70 -c 2 -a 0 -i 19 -k MAC
+ -t 1.206156031 -s 2 -d -1 -p IMEP -e 62 -c 2 -a 0 -i 22 -k RTR 
- -t 1.206156031 -s 2 -d -1 -p IMEP -e 62 -c 2 -a 0 -i 22 -k RTR
h -t 1.206156031 -s 2 -d -1 -p IMEP -e 62 -c 2 -a 0 -i 22 -k RTR
+ -t 1.206811031 -s 2 -d -1 -p IMEP -e 120 -c 2 -a 0 -i 22 -k MAC 
- -t 1.206811031 -s 2 -d -1 -p IMEP -e 120 -c 2 -a 0 -i 22 -k MAC
h -t 1.206811031 -s 2 -d -1 -p IMEP -e 120 -c 2 -a 0 -i 22 -k MAC
r -t 1.207771701 -s 3 -d -1 -p IMEP -e 62 -c 2 -a 0 -i 22 -k MAC
r -t 1.207771738 -s 0 -d -1 -p IMEP -e 62 -c 2 -a 0 -i 22 -k MAC
+ -t 1.210208995 -s 0 -d -1 -p IMEP -e 60 -c 2 -a 0 -i 25 -k RTR 
- -t 1.210208995 -s 0 -d -1 -p IMEP -e 60 -c 2 -a 0 -i 25 -k RTR
h -t 1.210208995 -s 0 -d -1 -p IMEP -e 60 -c 2 -a 0 -i 25 -k RTR
+ -t 1.210323995 -s 0 -d -1 -p IMEP -e 118 -c 2 -a 0 -i 25 -k MAC 
- -t 1.210323995 -s 0 -d -1 -p IMEP -e 118 -c 2 -a 0 -i 25 -k MAC
h -t 1.210323995 -s 0 -d -1 -p IMEP -e 118 -c 2 -a 0 -i 25 -k MAC
r -t 1.211268702 -s 2 -d -1 -p IMEP -e 60 -c 2 -a 0 -i 25 -k MAC
r -t 1.211268773 -s 1 -d -1 -p IMEP -e 60 -c 2 -a 0 -i 25 -k MAC
+ -t 1.300000000 -s 3 -d -1 -p IMEP -e 34 -c 2 -a 0 -i 26 -k RTR 
- -t 1.300000000 -s 3 -d -1 -p IMEP -e 34 -c 2 -a 0 -i 26 -k RTR
h -t 1.300000000 -s 3 -d -1 -p IMEP -e 34 -c 2 -a 0 -i 26 -k RTR
+ -t 1.300215000 -s 3 -d -1 -p IMEP -e 92 -c 2 -a 0 -i 26 -k MAC 
- -t 1.300215000 -s 3 -d -1 -p IMEP -e 92 -c 2 -a 0 -i 26 -k MAC
h -t 1.300215000 -s 3 -d -1 -p IMEP -e 92 -c 2 -a 0 -i 26 -k MAC
r -t 1.300951669 -s 2 -d -1 -p IMEP -e 34 -c 2 -a 0 -i 26 -k MAC
r -t 1.300951695 -s 5 -d -1 -p IMEP -e 34 -c 2 -a 0 -i 26 -k MAC
+ -t 1.302850322 -s 2 -d -1 -p IMEP -e 76 -c 2 -a 0 -i 33 -k RTR 
- -t 1.302850322 -s 2 -d -1 -p IMEP -e 76 -c 2 -a 0 -i 33 -k RTR
h -t 1.302850322 -s 2 -d -1 -p IMEP -e 76 -c 2 -a 0 -i 33 -k RTR
+ -t 1.303125322 -s 2 -d -1 -p IMEP -e 134 -c 2 -a 0 -i 33 -k MAC 
- -t 1.303125322 -s 2 -d -1 -p IMEP -e 134 -c 2 -a 0 -i 33 -k MAC
h -t 1.303125322 -s 2 -d -1 -p IMEP -e 134 -c 2 -a 0 -i 33 -k MAC
r -t 1.304197991 -s 3 -d -1 -p IMEP -e 76 -c 2 -a 0 -i 33 -k MAC
r -t 1.304198028 -s 0 -d -1 -p IMEP -e 76 -c 2 -a 0 -i 33 -k MAC
+ -t 1.304331074 -s 3 -d -1 -p IMEP -e 62 -c 2 -a 0 -i 39 -k RTR 
- -t 1.304331074 -s 3 -d -1 -p IMEP -e 62 -c 2 -a 0 -i 39 -k RTR
h -t 1.304331074 -s 3 -d -1 -p IMEP -e 62 -c 2 -a 0 -i 39 -k RTR
+ -t 1.304586074 -s 3 -d -1 -p IMEP -e 120 -c 2 -a 0 -i 39 -k MAC 
- -t 1.304586074 -s 3 -d -1 -p IMEP -e 120 -c 2 -a 0 -i 39 -k MAC
h -t 1.304586074 -s 3 -d -1 -p IMEP -e 120 -c 2 -a 0 -i 39 -k MAC
+ -t 1.305454063 -s 0 -d -1 -p IMEP -e 70 -c 2 -a 0 -i 40 -k RTR 
- -t 1.305454063 -s 0 -d -1 -p IMEP -e 70 -c 2 -a 0 -i 40 -k RTR
h -t 1.305454063 -s 0 -d -1 -p IMEP -e 70 -c 2 -a 0 -i 40 -k RTR
r -t 1.305546743 -s 2 -d -1 -p IMEP -e 62 -c 2 -a 0 -i 39 -k MAC
r -t 1.305546769 -s 5 -d -1 -p IMEP -e 62 -c 2 -a 0 -i 39 -k MAC
+ -t 1.306241431 -s 0 -d -1 -p IMEP -e 128 -c 2 -a 0 -i 40 -k MAC 
- -t 1.306241431 -s 0 -d -1 -p IMEP -e 128 -c 2 -a 0 -i 40 -k MAC
h -t 1.306241431 -s 0 -d -1 -p IMEP -e 128 -c 2 -a 0 -i 40 -k MAC
r -t 1.307266138 -s 2 -d -1 -p IMEP -e 70 -c 2 -a 0 -i 40 -k MAC
r -t 1.307266209 -s 1 -d -1 -p IMEP -e 70 -c 2 -a 0 -i 40 -k MAC
+ -t 1.314923016 -s 6 -d -1 -p IMEP -e 34 -c 2 -a 0 -i 41 -k RTR 
- -t 1.314923016 -s 6 -d -1 -p IMEP -e 34 -c 2 -a 0 -i 41 -k RTR
h -t 1.314923016 -s 6 -d -1 -p IMEP -e 34 -c 2 -a 0 -i 41 -k RTR
+ -t 1.315218016 -s 6 -d -1 -p IMEP -e 92 -c 2 -a 0 -i 41 -k MAC 
- -t 1.315218016 -s 6 -d -1 -p IMEP -e 92 -c 2 -a 0 -i 41 -k MAC
h -t 1.315218016 -s 6 -d -1 -p IMEP -e 92 -c 2 -a 0 -i 41 -k MAC
r -t 1.315954507 -s 4 -d -1 -p IMEP -e 34 -c 2 -a 0 -i 41 -k MAC
r -t 1.315954518 -s 1 -d -1 -p IMEP -e 34 -c 2 -a 0 -i 41 -k MAC
r -t 1.315954747 -s 7 -d -1 -p IMEP -e 34 -c 2 -a 0 -i 41 -k MAC
+ -t 1.316255093 -s 1 -d -1 -p IMEP -e 76 -c 2 -a 0 -i 48 -k RTR 
- -t 1.316255093 -s 1 -d -1 -p IMEP -e 76 -c 2 -a 0 -i 48 -k RTR
h -t 1.316255093 -s 1 -d -1 -p IMEP -e 76 -c 2 -a 0 -i 48 -k RTR
+ -t 1.316630093 -s 1 -d -1 -p IMEP -e 134 -c 2 -a 0 -i 48 -k MAC 
- -t 1.316630093 -s 1 -d -1 -p IMEP -e 134 -c 2 -a 0 -i 48 -k MAC
h -t 1.316630093 -s 1 -d -1 -p IMEP -e 134 -c 2 -a 0 -i 48 -k MAC
r -t 1.317702595 -s 6 -d -1 -p IMEP -e 76 -c 2 -a 0 -i 48 -k MAC
r -t 1.317702871 -s 0 -d -1 -p IMEP -e 76 -c 2 -a 0 -i 48 -k MAC
+ -t 1.319515149 -s 0 -d -1 -p IMEP -e 60 -c 2 -a 0 -i 52 -k RTR 
- -t 1.319515149 -s 0 -d -1 -p IMEP -e 60 -c 2 -a 0 -i 52 -k RTR
h -t 1.319515149 -s 0 -d -1 -p IMEP -e 60 -c 2 -a 0 -i 52 -k RTR
+ -t 1.319710149 -s 0 -d -1 -p IMEP -e 118 -c 2 -a 0 -i 52 -k MAC 
- -t 1.319710149 -s 0 -d -1 -p IMEP -e 118 -c 2 -a 0 -i 52 -k MAC
h -t 1.319710149 -s 0 -d -1 -p IMEP -e 118 -c 2 -a 0 -i 52 -k MAC
+ -t 1.319794935 -s 6 -d -1 -p IMEP -e 42 -c 2 -a 0 -i 53 -k RTR 
- -t 1.319794935 -s 6 -d -1 -p IMEP -e 42 -c 2 -a 0 -i 53 -k RTR
h -t 1.319794935 -s 6 -d -1 -p IMEP -e 42 -c 2 -a 0 -i 53 -k RTR
r -t 1.320654856 -s 2 -d -1 -p IMEP -e 60 -c 2 -a 0 -i 52 -k MAC
r -t 1.320654928 -s 1 -d -1 -p IMEP -e 60 -c 2 -a 0 -i 52 -k MAC
+ -t 1.321369323 -s 6 -d -1 -p IMEP -e 100 -c 2 -a 0 -i 53 -k MAC 
- -t 1.321369323 -s 6 -d -1 -p IMEP -e 100 -c 2 -a 0 -i 53 -k MAC
h -t 1.321369323 -s 6 -d -1 -p IMEP -e 100 -c 2 -a 0 -i 53 -k MAC
r -t 1.322169814 -s 4 -d -1 -p IMEP -e 42 -c 2 -a 0 -i 53 -k MAC
r -t 1.322169825 -s 1 -d -1 -p IMEP -e 42 -c 2 -a 0 -i 53 -k MAC
r -t 1.322170054 -s 7 -d -1 -p IMEP -e 42 -c 2 -a 0 -i 53 -k MAC
+ -t 1.400000000 -s 4 -d -1 -p IMEP -e 34 -c 2 -a 0 -i 54 -k RTR 
- -t 1.400000000 -s 4 -d -1 -p IMEP -e 34 -c 2 -a 0 -i 54 -k RTR
h -t 1.400000000 -s 4 -d -1 -p IMEP -e 34 -c 2 -a 0 -i 54 -k RTR
+ -t 1.400275000 -s 4 -d -1 -p IMEP -e 92 -c 2 -a 0 -i 54 -k MAC 
- -t 1.400275000 -s 4 -d -1 -p IMEP -e 92 -c 2 -a 0 -i 54 -k MAC
h -t 1.400275000 -s 4 -d -1 -p IMEP -e 92 -c 2 -a 0 -i 54 -k MAC
r -t 1.401011367 -s 7 -d -1 -p IMEP -e 34 -c 2 -a 0 -i 54 -k MAC
r -t 1.401011490 -s 6 -d -1 -p IMEP -e 34 -c 2 -a 0 -i 54 -k MAC
r -t 1.401011627 -s 5 -d -1 -p IMEP -e 34 -c 2 -a 0 -i 54 -k MAC
r -t 1.401011752 -s 8 -d -1 -p IMEP -e 34 -c 2 -a 0 -i 54 -k MAC
+ -t 1.401918492 -s 6 -d -1 -p IMEP -e 86 -c 2 -a 0 -i 64 -k RTR 
- -t 1.401918492 -s 6 -d -1 -p IMEP -e 86 -c 2 -a 0 -i 64 -k RTR
h -t 1.401918492 -s 6 -d -1 -p IMEP -e 86 -c 2 -a 0 -i 64 -k RTR
+ -t 1.402113492 -s 6 -d -1 -p IMEP -e 144 -c 2 -a 0 -i 64 -k MAC 
- -t 1.402113492 -s 6 -d -1 -p IMEP -e 144 -c 2 -a 0 -i 64 -k MAC
h -t 1.402113492 -s 6 -d -1 -p IMEP -e 144 -c 2 -a 0 -i 64 -k MAC
r -t 1.403265982 -s 4 -d -1 -p IMEP -e 86 -c 2 -a 0 -i 64 -k MAC
r -t 1.403265994 -s 1 -d -1 -p IMEP -e 86 -c 2 -a 0 -i 64 -k MAC
r -t 1.403266222 -s 7 -d -1 -p IMEP -e 86 -c 2 -a 0 -i 64 -k MAC
+ -t 1.406851580 -s 1 -d -1 -p IMEP -e 56 -c 2 -a 0 -i 68 -k RTR 
- -t 1.406851580 -s 1 -d -1 -p IMEP -e 56 -c 2 -a 0 -i 68 -k RTR
h -t 1.406851580 -s 1 -d -1 -p IMEP -e 56 -c 2 -a 0 -i 68 -k RTR
+ -t 1.407366580 -s 1 -d -1 -p IMEP -e 114 -c 2 -a 0 -i 68 -k MAC 
- -t 1.407366580 -s 1 -d -1 -p IMEP -e 114 -c 2 -a 0 -i 68 -k MAC
h -t 1.407366580 -s 1 -d -1 -p IMEP -e 114 -c 2 -a 0 -i 68 -k MAC
r -t 1.408279081 -s 6 -d -1 -p IMEP -e 56 -c 2 -a 0 -i 68 -k MAC
r -t 1.408279358 -s 0 -d -1 -p IMEP -e 56 -c 2 -a 0 -i 68 -k MAC
+ -t 1.411311101 -s 4 -d -1 -p IMEP -e 52 -c 2 -a 0 -i 70 -k RTR 
- -t 1.411311101 -s 4 -d -1 -p IMEP -e 52 -c 2 -a 0 -i 70 -k RTR
h -t 1.411311101 -s 4 -d -1 -p IMEP -e 52 -c 2 -a 0 -i 70 -k RTR
+ -t 1.411686101 -s 4 -d -1 -p IMEP -e 110 -c 2 -a 0 -i 70 -k MAC 
- -t 1.411686101 -s 4 -d -1 -p IMEP -e 110 -c 2 -a 0 -i 70 -k MAC
h -t 1.411686101 -s 4 -d -1 -p IMEP -e 110 -c 2 -a 0 -i 70 -k MAC
r -t 1.412566468 -s 7 -d -1 -p IMEP -e 52 -c 2 -a 0 -i 70 -k MAC
r -t 1.412566591 -s 6 -d -1 -p IMEP -e 52 -c 2 -a 0 -i 70 -k MAC
r -t 1.412566727 -s 5 -d -1 -p IMEP -e 52 -c 2 -a 0 -i 70 -k MAC
r -t 1.412566853 -s 8 -d -1 -p IMEP -e 52 -c 2 -a 0 -i 70 -k MAC
+ -t 1.500000000 -s 5 -d -1 -p IMEP -e 38 -c 2 -a 0 -i 71 -k RTR 
- -t 1.500000000 -s 5 -d -1 -p IMEP -e 38 -c 2 -a 0 -i 71 -k RTR
h -t 1.500000000 -s 5 -d -1 -p IMEP -e 38 -c 2 -a 0 -i 71 -k RTR
+ -t 1.500115000 -s 5 -d -1 -p IMEP -e 96 -c 2 -a 0 -i 71 -k MAC 
- -t 1.500115000 -s 5 -d -1 -p IMEP -e 96 -c 2 -a 0 -i 71 -k MAC
h -t 1.500115000 -s 5 -d -1 -p IMEP -e 96 -c 2 -a 0 -i 71 -k MAC
r -t 1.500883370 -s 8 -d -1 -p IMEP -e 38 -c 2 -a 0 -i 71 -k MAC
r -t 1.500883458 -s 9 -d -1 -p IMEP -e 38 -c 2 -a 0 -i 71 -k MAC
r -t 1.500883624 -s 4 -d -1 -p IMEP -e 38 -c 2 -a 0 -i 71 -k MAC
r -t 1.500883690 -s 3 -d -1 -p IMEP -e 38 -c 2 -a 0 -i 71 -k MAC
r -t 1.500883698 -s 7 -d -1 -p IMEP -e 38 -c 2 -a 0 -i 71 -k MAC
+ -t 1.500942193 -s 3 -d -1 -p IMEP -e 86 -c 2 -a 0 -i 87 -k RTR 
- -t 1.500942193 -s 3 -d -1 -p IMEP -e 86 -c 2 -a 0 -i 87 -k RTR
h -t 1.500942193 -s 3 -d -1 -p IMEP -e 86 -c 2 -a 0 -i 87 -k RTR
+ -t 1.501236548 -s 4 -d -1 -p IMEP -e 86 -c 2 -a 0 -i 88 -k RTR 
- -t 1.501236548 -s 4 -d -1 -p IMEP -e 86 -c 2 -a 0 -i 88 -k RTR
h -t 1.501236548 -s 4 -d -1 -p IMEP -e 86 -c 2 -a 0 -i 88 -k RTR
+ -t 1.501337193 -s 3 -d -1 -p IMEP -e 144 -c 2 -a 0 -i 87 -k MAC 
- -t 1.501337193 -s 3 -d -1 -p IMEP -e 144 -c 2 -a 0 -i 87 -k MAC
h -t 1.501337193 -s 3 -d -1 -p IMEP -e 144 -c 2 -a 0 -i 87 -k MAC
r -t 1.502489861 -s 2 -d -1 -p IMEP -e 86 -c 2 -a 0 -i 87 -k MAC
r -t 1.502489883 -s 5 -d -1 -p IMEP -e 86 -c 2 -a 0 -i 87 -k MAC
+ -t 1.503304129 -s 4 -d -1 -p IMEP -e 144 -c 2 -a 0 -i 88 -k MAC 
- -t 1.503304129 -s 4 -d -1 -p IMEP -e 144 -c 2 -a 0 -i 88 -k MAC
h -t 1.503304129 -s 4 -d -1 -p IMEP -e 144 -c 2 -a 0 -i 88 -k MAC
r -t 1.504456496 -s 7 -d -1 -p IMEP -e 86 -c 2 -a 0 -i 88 -k MAC
r -t 1.504456619 -s 6 -d -1 -p IMEP -e 86 -c 2 -a 0 -i 88 -k MAC
r -t 1.504456753 -s 5 -d -1 -p IMEP -e 86 -c 2 -a 0 -i 88 -k MAC
r -t 1.504456881 -s 8 -d -1 -p IMEP -e 86 -c 2 -a 0 -i 88 -k MAC
+ -t 1.504641591 -s 6 -d -1 -p IMEP -e 56 -c 2 -a 0 -i 102 -k RTR 
- -t 1.504641591 -s 6 -d -1 -p IMEP -e 56 -c 2 -a 0 -i 102 -k RTR
h -t 1.504641591 -s 6 -d -1 -p IMEP -e 56 -c 2 -a 0 -i 102 -k RTR
+ -t 1.504736591 -s 6 -d -1 -p IMEP -e 114 -c 2 -a 0 -i 102 -k MAC 
- -t 1.504736591 -s 6 -d -1 -p IMEP -e 114 -c 2 -a 0 -i 102 -k MAC
h -t 1.504736591 -s 6 -d -1 -p IMEP -e 114 -c 2 -a 0 -i 102 -k MAC
r -t 1.505649081 -s 4 -d -1 -p IMEP -e 56 -c 2 -a 0 -i 102 -k MAC
r -t 1.505649093 -s 1 -d -1 -p IMEP -e 56 -c 2 -a 0 -i 102 -k MAC
r -t 1.505649321 -s 7 -d -1 -p IMEP -e 56 -c 2 -a 0 -i 102 -k MAC
+ -t 1.505673524 -s 5 -d -1 -p IMEP -e 140 -c 2 -a 0 -i 103 -k RTR 
- -t 1.505673524 -s 5 -d -1 -p IMEP -e 140 -c 2 -a 0 -i 103 -k RTR
h -t 1.505673524 -s 5 -d -1 -p IMEP -e 140 -c 2 -a 0 -i 103 -k RTR
+ -t 1.506443687 -s 5 -d -1 -p IMEP -e 198 -c 2 -a 0 -i 103 -k MAC 
- -t 1.506443687 -s 5 -d -1 -p IMEP -e 198 -c 2 -a 0 -i 103 -k MAC
h -t 1.506443687 -s 5 -d -1 -p IMEP -e 198 -c 2 -a 0 -i 103 -k MAC
r -t 1.508028057 -s 8 -d -1 -p IMEP -e 140 -c 2 -a 0 -i 103 -k MAC
r -t 1.508028145 -s 9 -d -1 -p IMEP -e 140 -c 2 -a 0 -i 103 -k MAC
r -t 1.508028311 -s 4 -d -1 -p IMEP -e 140 -c 2 -a 0 -i 103 -k MAC
r -t 1.508028377 -s 3 -d -1 -p IMEP -e 140 -c 2 -a 0 -i 103 -k MAC
r -t 1.508028384 -s 7 -d -1 -p IMEP -e 140 -c 2 -a 0 -i 103 -k MAC
+ -t 1.508668427 -s 2 -d -1 -p IMEP -e 56 -c 2 -a 0 -i 110 -k RTR 
- -t 1.508668427 -s 2 -d -1 -p IMEP -e 56 -c 2 -a 0 -i 110 -k RTR
h -t 1.508668427 -s 2 -d -1 -p IMEP -e 56 -c 2 -a 0 -i 110 -k RTR
+ -t 1.508698267 -s 3 -d -1 -p IMEP -e 66 -c 2 -a 0 -i 111 -k RTR 
- -t 1.508698267 -s 3 -d -1 -p IMEP -e 66 -c 2 -a 0 -i 111 -k RTR
h -t 1.508698267 -s 3 -d -1 -p IMEP -e 66 -c 2 -a 0 -i 111 -k RTR
+ -t 1.508883427 -s 2 -d -1 -p IMEP -e 114 -c 2 -a 0 -i 110 -k MAC 
- -t 1.508883427 -s 2 -d -1 -p IMEP -e 114 -c 2 -a 0 -i 110 -k MAC
h -t 1.508883427 -s 2 -d -1 -p IMEP -e 114 -c 2 -a 0 -i 110 -k MAC
r -t 1.509796095 -s 3 -d -1 -p IMEP -e 56 -c 2 -a 0 -i 110 -k MAC
r -t 1.509796133 -s 0 -d -1 -p IMEP -e 56 -c 2 -a 0 -i 110 -k MAC
+ -t 1.509986095 -s 3 -d -1 -p IMEP -e 124 -c 2 -a 0 -i 111 -k MAC 
- -t 1.509986095 -s 3 -d -1 -p IMEP -e 124 -c 2 -a 0 -i 111 -k MAC
h -t 1.509986095 -s 3 -d -1 -p IMEP -e 124 -c 2 -a 0 -i 111 -k MAC
r -t 1.510978763 -s 2 -d -1 -p IMEP -e 66 -c 2 -a 0 -i 111 -k MAC
r -t 1.510978785 -s 5 -d -1 -p IMEP -e 66 -c 2 -a 0 -i 111 -k MAC
+ -t 1.514282210 -s 4 -d -1 -p IMEP -e 66 -c 2 -a 0 -i 114 -k RTR 
- -t 1.514282210 -s 4 -d -1 -p IMEP -e 66 -c 2 -a 0 -i 114 -k RTR
h -t 1.514282210 -s 4 -d -1 -p IMEP -e 66 -c 2 -a 0 -i 114 -k RTR
+ -t 1.514897210 -s 4 -d -1 -p IMEP -e 124 -c 2 -a 0 -i 114 -k MAC 
- -t 1.514897210 -s 4 -d -1 -p IMEP -e 124 -c 2 -a 0 -i 114 -k MAC
h -t 1.514897210 -s 4 -d -1 -p IMEP -e 124 -c 2 -a 0 -i 114 -k MAC
r -t 1.515889577 -s 7 -d -1 -p IMEP -e 66 -c 2 -a 0 -i 114 -k MAC
r -t 1.515889700 -s 6 -d -1 -p IMEP -e 66 -c 2 -a 0 -i 114 -k MAC
r -t 1.515889834 -s 5 -d -1 -p IMEP -e 66 -c 2 -a 0 -i 114 -k MAC
r -t 1.515889962 -s 8 -d -1 -p IMEP -e 66 -c 2 -a 0 -i 114 -k MAC
+ -t 1.518065844 -s 2 -d -1 -p IMEP -e 46 -c 2 -a 0 -i 115 -k RTR 
- -t 1.518065844 -s 2 -d -1 -p IMEP -e 46 -c 2 -a 0 -i 115 -k RTR
h -t 1.518065844 -s 2 -d -1 -p IMEP -e 46 -c 2 -a 0 -i 115 -k RTR
+ -t 1.518720844 -s 2 -d -1 -p IMEP -e 104 -c 2 -a 0 -i 115 -k MAC 
- -t 1.518720844 -s 2 -d -1 -p IMEP -e 104 -c 2 -a 0 -i 115 -k MAC
h -t 1.518720844 -s 2 -d -1 -p IMEP -e 104 -c 2 -a 0 -i 115 -k MAC
r -t 1.519553512 -s 3 -d -1 -p IMEP -e 46 -c 2 -a 0 -i 115 -k MAC
r -t 1.519553550 -s 0 -d -1 -p IMEP -e 46 -c 2 -a 0 -i 115 -k MAC
+ -t 1.544478457 -s 7 -d -1 -p IMEP -e 42 -c 2 -a 0 -i 117 -k RTR 
- -t 1.544478457 -s 7 -d -1 -p IMEP -e 42 -c 2 -a 0 -i 117 -k RTR
h -t 1.544478457 -s 7 -d -1 -p IMEP -e 42 -c 2 -a 0 -i 117 -k RTR
+ -t 1.544773457 -s 7 -d -1 -p IMEP -e 100 -c 2 -a 0 -i 117 -k MAC 
- -t 1.544773457 -s 7 -d -1 -p IMEP -e 100 -c 2 -a 0 -i 117 -k MAC
h -t 1.544773457 -s 7 -d -1 -p IMEP -e 100 -c 2 -a 0 -i 117 -k MAC
r -t 1.545573824 -s 4 -d -1 -p IMEP -e 42 -c 2 -a 0 -i 117 -k MAC
r -t 1.545574082 -s 8 -d -1 -p IMEP -e 42 -c 2 -a 0 -i 117 -k MAC
r -t 1.545574154 -s 5 -d -1 -p IMEP -e 42 -c 2 -a 0 -i 117 -k MAC
r -t 1.545574187 -s 6 -d -1 -p IMEP -e 42 -c 2 -a 0 -i 117 -k MAC
+ -t 1.546264005 -s 5 -d -1 -p IMEP -e 110 -c 2 -a 0 -i 141 -k RTR 
- -t 1.546264005 -s 5 -d -1 -p IMEP -e 110 -c 2 -a 0 -i 141 -k RTR
h -t 1.546264005 -s 5 -d -1 -p IMEP -e 110 -c 2 -a 0 -i 141 -k RTR
+ -t 1.546419005 -s 5 -d -1 -p IMEP -e 168 -c 2 -a 0 -i 141 -k MAC 
- -t 1.546419005 -s 5 -d -1 -p IMEP -e 168 -c 2 -a 0 -i 141 -k MAC
h -t 1.546419005 -s 5 -d -1 -p IMEP -e 168 -c 2 -a 0 -i 141 -k MAC
+ -t 1.547658012 -s 6 -d -1 -p IMEP -e 110 -c 2 -a 0 -i 142 -k RTR 
- -t 1.547658012 -s 6 -d -1 -p IMEP -e 110 -c 2 -a 0 -i 142 -k RTR
h -t 1.547658012 -s 6 -d -1 -p IMEP -e 110 -c 2 -a 0 -i 142 -k RTR
r -t 1.547763376 -s 8 -d -1 -p IMEP -e 110 -c 2 -a 0 -i 141 -k MAC
r -t 1.547763464 -s 9 -d -1 -p IMEP -e 110 -c 2 -a 0 -i 141 -k MAC
r -t 1.547763628 -s 4 -d -1 -p IMEP -e 110 -c 2 -a 0 -i 141 -k MAC
r -t 1.547763694 -s 3 -d -1 -p IMEP -e 110 -c 2 -a 0 -i 141 -k MAC
r -t 1.547763702 -s 7 -d -1 -p IMEP -e 110 -c 2 -a 0 -i 141 -k MAC
+ -t 1.547888592 -s 4 -d -1 -p IMEP -e 130 -c 2 -a 0 -i 152 -k RTR 
- -t 1.547888592 -s 4 -d -1 -p IMEP -e 130 -c 2 -a 0 -i 152 -k RTR
h -t 1.547888592 -s 4 -d -1 -p IMEP -e 130 -c 2 -a 0 -i 152 -k RTR
+ -t 1.548204432 -s 7 -d -1 -p IMEP -e 102 -c 2 -a 0 -i 153 -k RTR 
- -t 1.548204432 -s 7 -d -1 -p IMEP -e 102 -c 2 -a 0 -i 153 -k RTR
h -t 1.548204432 -s 7 -d -1 -p IMEP -e 102 -c 2 -a 0 -i 153 -k RTR
+ -t 1.548523592 -s 4 -d -1 -p IMEP -e 188 -c 2 -a 0 -i 152 -k MAC 
- -t 1.548523592 -s 4 -d -1 -p IMEP -e 188 -c 2 -a 0 -i 152 -k MAC
h -t 1.548523592 -s 4 -d -1 -p IMEP -e 188 -c 2 -a 0 -i 152 -k MAC
r -t 1.550027959 -s 7 -d -1 -p IMEP -e 130 -c 2 -a 0 -i 152 -k MAC
r -t 1.550028083 -s 6 -d -1 -p IMEP -e 130 -c 2 -a 0 -i 152 -k MAC
r -t 1.550028216 -s 5 -d -1 -p IMEP -e 130 -c 2 -a 0 -i 152 -k MAC
r -t 1.550028345 -s 8 -d -1 -p IMEP -e 130 -c 2 -a 0 -i 152 -k MAC
+ -t 1.550157959 -s 7 -d -1 -p IMEP -e 160 -c 2 -a 0 -i 153 -k MAC 
- -t 1.550157959 -s 7 -d -1 -p IMEP -e 160 -c 2 -a 0 -i 153 -k MAC
h -t 1.550157959 -s 7 -d -1 -p IMEP -e 160 -c 2 -a 0 -i 153 -k MAC
+ -t 1.550606426 -s 7 -d -1 -p IMEP -e 116 -c 2 -a 0 -i 166 -k RTR 
- -t 1.550606426 -s 7 -d -1 -p IMEP -e 116 -c 2 -a 0 -i 166 -k RTR
h -t 1.550606426 -s 7 -d -1 -p IMEP -e 116 -c 2 -a 0 -i 166 -k RTR
+ -t 1.551351498 -s 6 -d -1 -p IMEP -e 60 -c 2 -a 0 -i 167 -k RTR 
- -t 1.551351498 -s 6 -d -1 -p IMEP -e 60 -c 2 -a 0 -i 167 -k RTR
h -t 1.551351498 -s 6 -d -1 -p IMEP -e 60 -c 2 -a 0 -i 167 -k RTR
r -t 1.551438326 -s 4 -d -1 -p IMEP -e 102 -c 2 -a 0 -i 153 -k MAC
r -t 1.551438585 -s 8 -d -1 -p IMEP -e 102 -c 2 -a 0 -i 153 -k MAC
r -t 1.551438657 -s 5 -d -1 -p IMEP -e 102 -c 2 -a 0 -i 153 -k MAC
r -t 1.551438690 -s 6 -d -1 -p IMEP -e 102 -c 2 -a 0 -i 153 -k MAC
+ -t 1.551628690 -s 6 -d -1 -p IMEP -e 168 -c 2 -a 0 -i 142 -k MAC 
- -t 1.551628690 -s 6 -d -1 -p IMEP -e 168 -c 2 -a 0 -i 142 -k MAC
h -t 1.551628690 -s 6 -d -1 -p IMEP -e 168 -c 2 -a 0 -i 142 -k MAC
r -t 1.552973180 -s 4 -d -1 -p IMEP -e 110 -c 2 -a 0 -i 142 -k MAC
r -t 1.552973192 -s 1 -d -1 -p IMEP -e 110 -c 2 -a 0 -i 142 -k MAC
r -t 1.552973420 -s 7 -d -1 -p IMEP -e 110 -c 2 -a 0 -i 142 -k MAC
+ -t 1.553033473 -s 1 -d -1 -p IMEP -e 56 -c 2 -a 0 -i 178 -k RTR 
- -t 1.553033473 -s 1 -d -1 -p IMEP -e 56 -c 2 -a 0 -i 178 -k RTR
h -t 1.553033473 -s 1 -d -1 -p IMEP -e 56 -c 2 -a 0 -i 178 -k RTR
+ -t 1.553122690 -s 6 -d -1 -p IMEP -e 118 -c 2 -a 0 -i 167 -k MAC 
- -t 1.553122690 -s 6 -d -1 -p IMEP -e 118 -c 2 -a 0 -i 167 -k MAC
h -t 1.553122690 -s 6 -d -1 -p IMEP -e 118 -c 2 -a 0 -i 167 -k MAC
+ -t 1.553197763 -s 7 -d -1 -p IMEP -e 120 -c 2 -a 0 -i 179 -k RTR 
- -t 1.553197763 -s 7 -d -1 -p IMEP -e 120 -c 2 -a 0 -i 179 -k RTR
h -t 1.553197763 -s 7 -d -1 -p IMEP -e 120 -c 2 -a 0 -i 179 -k RTR
+ -t 1.553905975 -s 3 -d -1 -p IMEP -e 46 -c 2 -a 0 -i 180 -k RTR 
- -t 1.553905975 -s 3 -d -1 -p IMEP -e 46 -c 2 -a 0 -i 180 -k RTR
h -t 1.553905975 -s 3 -d -1 -p IMEP -e 46 -c 2 -a 0 -i 180 -k RTR
r -t 1.554067180 -s 4 -d -1 -p IMEP -e 60 -c 2 -a 0 -i 167 -k MAC
r -t 1.554067192 -s 1 -d -1 -p IMEP -e 60 -c 2 -a 0 -i 167 -k MAC
r -t 1.554067420 -s 7 -d -1 -p IMEP -e 60 -c 2 -a 0 -i 167 -k MAC
+ -t 1.554223510 -s 5 -d -1 -p IMEP -e 60 -c 2 -a 0 -i 182 -k RTR 
- -t 1.554223510 -s 5 -d -1 -p IMEP -e 60 -c 2 -a 0 -i 182 -k RTR
h -t 1.554223510 -s 5 -d -1 -p IMEP -e 60 -c 2 -a 0 -i 182 -k RTR
+ -t 1.554257420 -s 7 -d -1 -p IMEP -e 174 -c 2 -a 0 -i 166 -k MAC 
- -t 1.554257420 -s 7 -d -1 -p IMEP -e 174 -c 2 -a 0 -i 166 -k MAC
h -t 1.554257420 -s 7 -d -1 -p IMEP -e 174 -c 2 -a 0 -i 166 -k MAC
r -t 1.555649787 -s 4 -d -1 -p IMEP -e 116 -c 2 -a 0 -i 166 -k MAC
r -t 1.555650046 -s 8 -d -1 -p IMEP -e 116 -c 2 -a 0 -i 166 -k MAC
r -t 1.555650117 -s 5 -d -1 -p IMEP -e 116 -c 2 -a 0 -i 166 -k MAC
r -t 1.555650150 -s 6 -d -1 -p IMEP -e 116 -c 2 -a 0 -i 166 -k MAC
+ -t 1.556039420 -s 7 -d -1 -p IMEP -e 178 -c 2 -a 0 -i 179 -k MAC 
- -t 1.556039420 -s 7 -d -1 -p IMEP -e 178 -c 2 -a 0 -i 179 -k MAC
h -t 1.556039420 -s 7 -d -1 -p IMEP -e 178 -c 2 -a 0 -i 179 -k MAC
+ -t 1.557171678 -s 1 -d -1 -p IMEP -e 46 -c 2 -a 0 -i 183 -k RTR 
- -t 1.557171678 -s 1 -d -1 -p IMEP -e 46 -c 2 -a 0 -i 183 -k RTR
h -t 1.557171678 -s 1 -d -1 -p IMEP -e 46 -c 2 -a 0 -i 183 -k RTR
r -t 1.557463787 -s 4 -d -1 -p IMEP -e 120 -c 2 -a 0 -i 179 -k MAC
r -t 1.557464046 -s 8 -d -1 -p IMEP -e 120 -c 2 -a 0 -i 179 -k MAC
r -t 1.557464117 -s 5 -d -1 -p IMEP -e 120 -c 2 -a 0 -i 179 -k MAC
r -t 1.557464150 -s 6 -d -1 -p IMEP -e 120 -c 2 -a 0 -i 179 -k MAC
+ -t 1.557534117 -s 5 -d -1 -p IMEP -e 118 -c 2 -a 0 -i 182 -k MAC 
- -t 1.557534117 -s 5 -d -1 -p IMEP -e 118 -c 2 -a 0 -i 182 -k MAC
h -t 1.557534117 -s 5 -d -1 -p IMEP -e 118 -c 2 -a 0 -i 182 -k MAC
r -t 1.558478489 -s 8 -d -1 -p IMEP -e 60 -c 2 -a 0 -i 182 -k MAC
r -t 1.558478577 -s 9 -d -1 -p IMEP -e 60 -c 2 -a 0 -i 182 -k MAC
r -t 1.558478741 -s 4 -d -1 -p IMEP -e 60 -c 2 -a 0 -i 182 -k MAC
r -t 1.558478806 -s 3 -d -1 -p IMEP -e 60 -c 2 -a 0 -i 182 -k MAC
r -t 1.558478815 -s 7 -d -1 -p IMEP -e 60 -c 2 -a 0 -i 182 -k MAC
+ -t 1.558888806 -s 3 -d -1 -p IMEP -e 104 -c 2 -a 0 -i 180 -k MAC 
- -t 1.558888806 -s 3 -d -1 -p IMEP -e 104 -c 2 -a 0 -i 180 -k MAC
h -t 1.558888806 -s 3 -d -1 -p IMEP -e 104 -c 2 -a 0 -i 180 -k MAC
r -t 1.559721474 -s 2 -d -1 -p IMEP -e 46 -c 2 -a 0 -i 180 -k MAC
r -t 1.559721495 -s 5 -d -1 -p IMEP -e 46 -c 2 -a 0 -i 180 -k MAC
+ -t 1.560256182 -s 1 -d -1 -p IMEP -e 114 -c 2 -a 0 -i 178 -k MAC 
- -t 1.560256182 -s 1 -d -1 -p IMEP -e 114 -c 2 -a 0 -i 178 -k MAC
h -t 1.560256182 -s 1 -d -1 -p IMEP -e 114 -c 2 -a 0 -i 178 -k MAC
r -t 1.561168684 -s 6 -d -1 -p IMEP -e 56 -c 2 -a 0 -i 178 -k MAC
r -t 1.561168960 -s 0 -d -1 -p IMEP -e 56 -c 2 -a 0 -i 178 -k MAC
+ -t 1.561678182 -s 1 -d -1 -p IMEP -e 104 -c 2 -a 0 -i 183 -k MAC 
- -t 1.561678182 -s 1 -d -1 -p IMEP -e 104 -c 2 -a 0 -i 183 -k MAC
h -t 1.561678182 -s 1 -d -1 -p IMEP -e 104 -c 2 -a 0 -i 183 -k MAC
r -t 1.562510684 -s 6 -d -1 -p IMEP -e 46 -c 2 -a 0 -i 183 -k MAC
r -t 1.562510960 -s 0 -d -1 -p IMEP -e 46 -c 2 -a 0 -i 183 -k MAC
+ -t 1.565969565 -s 0 -d -1 -p IMEP -e 92 -c 2 -a 0 -i 187 -k RTR 
- -t 1.565969565 -s 0 -d -1 -p IMEP -e 92 -c 2 -a 0 -i 187 -k RTR
h -t 1.565969565 -s 0 -d -1 -p IMEP -e 92 -c 2 -a 0 -i 187 -k RTR
+ -t 1.566464565 -s 0 -d -1 -p IMEP -e 150 -c 2 -a 0 -i 187 -k MAC 
- -t 1.566464565 -s 0 -d -1 -p IMEP -e 150 -c 2 -a 0 -i 187 -k MAC
h -t 1.566464565 -s 0 -d -1 -p IMEP -e 150 -c 2 -a 0 -i 187 -k MAC
r -t 1.567665271 -s 2 -d -1 -p IMEP -e 92 -c 2 -a 0 -i 187 -k MAC
r -t 1.567665343 -s 1 -d -1 -p IMEP -e 92 -c 2 -a 0 -i 187 -k MAC
+ -t 1.609400014 -s 0 -d -1 -p IMEP -e 42 -c 2 -a 0 -i 191 -k RTR 
- -t 1.609400014 -s 0 -d -1 -p IMEP -e 42 -c 2 -a 0 -i 191 -k RTR
h -t 1.609400014 -s 0 -d -1 -p IMEP -e 42 -c 2 -a 0 -i 191 -k RTR
+ -t 1.609875014 -s 0 -d -1 -p IMEP -e 100 -c 2 -a 0 -i 191 -k MAC 
- -t 1.609875014 -s 0 -d -1 -p IMEP -e 100 -c 2 -a 0 -i 191 -k MAC
h -t 1.609875014 -s 0 -d -1 -p IMEP -e 100 -c 2 -a 0 -i 191 -k MAC
r -t 1.610675719 -s 2 -d -1 -p IMEP -e 42 -c 2 -a 0 -i 191 -k MAC
r -t 1.610675792 -s 1 -d -1 -p IMEP -e 42 -c 2 -a 0 -i 191 -k MAC
+ -t 1.638501383 -s 8 -d -1 -p IMEP -e 42 -c 2 -a 0 -i 192 -k RTR 
- -t 1.638501383 -s 8 -d -1 -p IMEP -e 42 -c 2 -a 0 -i 192 -k RTR
h -t 1.638501383 -s 8 -d -1 -p IMEP -e 42 -c 2 -a 0 -i 192 -k RTR
+ -t 1.638596383 -s 8 -d -1 -p IMEP -e 100 -c 2 -a 0 -i 192 -k MAC 
- -t 1.638596383 -s 8 -d -1 -p IMEP -e 100 -c 2 -a 0 -i 192 -k MAC
h -t 1.638596383 -s 8 -d -1 -p IMEP -e 100 -c 2 -a 0 -i 192 -k MAC
r -t 1.639396756 -s 5 -d -1 -p IMEP -e 42 -c 2 -a 0 -i 192 -k MAC
r -t 1.639396820 -s 9 -d -1 -p IMEP -e 42 -c 2 -a 0 -i 192 -k MAC
r -t 1.639397008 -s 7 -d -1 -p IMEP -e 42 -c 2 -a 0 -i 192 -k MAC
r -t 1.639397135 -s 4 -d -1 -p IMEP -e 42 -c 2 -a 0 -i 192 -k MAC
+ -t 1.639777095 -s 5 -d -1 -p IMEP -e 134 -c 2 -a 0 -i 221 -k RTR 
- -t 1.639777095 -s 5 -d -1 -p IMEP -e 134 -c 2 -a 0 -i 221 -k RTR
h -t 1.639777095 -s 5 -d -1 -p IMEP -e 134 -c 2 -a 0 -i 221 -k RTR
+ -t 1.640073274 -s 4 -d -1 -p IMEP -e 134 -c 2 -a 0 -i 222 -k RTR 
- -t 1.640073274 -s 4 -d -1 -p IMEP -e 134 -c 2 -a 0 -i 222 -k RTR
h -t 1.640073274 -s 4 -d -1 -p IMEP -e 134 -c 2 -a 0 -i 222 -k RTR
+ -t 1.640232095 -s 5 -d -1 -p IMEP -e 192 -c 2 -a 0 -i 221 -k MAC 
- -t 1.640232095 -s 5 -d -1 -p IMEP -e 192 -c 2 -a 0 -i 221 -k MAC
h -t 1.640232095 -s 5 -d -1 -p IMEP -e 192 -c 2 -a 0 -i 221 -k MAC
r -t 1.641768468 -s 8 -d -1 -p IMEP -e 134 -c 2 -a 0 -i 221 -k MAC
r -t 1.641768557 -s 9 -d -1 -p IMEP -e 134 -c 2 -a 0 -i 221 -k MAC
r -t 1.641768716 -s 4 -d -1 -p IMEP -e 134 -c 2 -a 0 -i 221 -k MAC
r -t 1.641768781 -s 3 -d -1 -p IMEP -e 134 -c 2 -a 0 -i 221 -k MAC
r -t 1.641768792 -s 7 -d -1 -p IMEP -e 134 -c 2 -a 0 -i 221 -k MAC
+ -t 1.642278716 -s 4 -d -1 -p IMEP -e 192 -c 2 -a 0 -i 222 -k MAC 
- -t 1.642278716 -s 4 -d -1 -p IMEP -e 192 -c 2 -a 0 -i 222 -k MAC
h -t 1.642278716 -s 4 -d -1 -p IMEP -e 192 -c 2 -a 0 -i 222 -k MAC
+ -t 1.642501914 -s 3 -d -1 -p IMEP -e 46 -c 2 -a 0 -i 234 -k RTR 
- -t 1.642501914 -s 3 -d -1 -p IMEP -e 46 -c 2 -a 0 -i 234 -k RTR
h -t 1.642501914 -s 3 -d -1 -p IMEP -e 46 -c 2 -a 0 -i 234 -k RTR
+ -t 1.642728563 -s 7 -d -1 -p IMEP -e 144 -c 2 -a 0 -i 235 -k RTR 
- -t 1.642728563 -s 7 -d -1 -p IMEP -e 144 -c 2 -a 0 -i 235 -k RTR
h -t 1.642728563 -s 7 -d -1 -p IMEP -e 144 -c 2 -a 0 -i 235 -k RTR
r -t 1.643815083 -s 7 -d -1 -p IMEP -e 134 -c 2 -a 0 -i 222 -k MAC
r -t 1.643815207 -s 6 -d -1 -p IMEP -e 134 -c 2 -a 0 -i 222 -k MAC
r -t 1.643815338 -s 5 -d -1 -p IMEP -e 134 -c 2 -a 0 -i 222 -k MAC
r -t 1.643815469 -s 8 -d -1 -p IMEP -e 134 -c 2 -a 0 -i 222 -k MAC
+ -t 1.643985083 -s 7 -d -1 -p IMEP -e 202 -c 2 -a 0 -i 235 -k MAC 
- -t 1.643985083 -s 7 -d -1 -p IMEP -e 202 -c 2 -a 0 -i 235 -k MAC
h -t 1.643985083 -s 7 -d -1 -p IMEP -e 202 -c 2 -a 0 -i 235 -k MAC
+ -t 1.644187854 -s 8 -d -1 -p IMEP -e 206 -c 2 -a 0 -i 247 -k RTR 
- -t 1.644187854 -s 8 -d -1 -p IMEP -e 206 -c 2 -a 0 -i 247 -k RTR
h -t 1.644187854 -s 8 -d -1 -p IMEP -e 206 -c 2 -a 0 -i 247 -k RTR
r -t 1.645601450 -s 4 -d -1 -p IMEP -e 144 -c 2 -a 0 -i 235 -k MAC
r -t 1.645601709 -s 8 -d -1 -p IMEP -e 144 -c 2 -a 0 -i 235 -k MAC
r -t 1.645601780 -s 5 -d -1 -p IMEP -e 144 -c 2 -a 0 -i 235 -k MAC
r -t 1.645601813 -s 6 -d -1 -p IMEP -e 144 -c 2 -a 0 -i 235 -k MAC
+ -t 1.646031709 -s 8 -d -1 -p IMEP -e 264 -c 2 -a 0 -i 247 -k MAC 
- -t 1.646031709 -s 8 -d -1 -p IMEP -e 264 -c 2 -a 0 -i 247 -k MAC
h -t 1.646031709 -s 8 -d -1 -p IMEP -e 264 -c 2 -a 0 -i 247 -k MAC
+ -t 1.646916952 -s 8 -d -1 -p IMEP -e 130 -c 2 -a 0 -i 257 -k RTR 
- -t 1.646916952 -s 8 -d -1 -p IMEP -e 130 -c 2 -a 0 -i 257 -k RTR
h -t 1.646916952 -s 8 -d -1 -p IMEP -e 130 -c 2 -a 0 -i 257 -k RTR
r -t 1.648144083 -s 5 -d -1 -p IMEP -e 206 -c 2 -a 0 -i 247 -k MAC
r -t 1.648144146 -s 9 -d -1 -p IMEP -e 206 -c 2 -a 0 -i 247 -k MAC
r -t 1.648144334 -s 7 -d -1 -p IMEP -e 206 -c 2 -a 0 -i 247 -k MAC