Sconfig 0.00000 tap: on snoop: rts? on errs? on
Sconfig 0.00000 salvage: on !bd replies? on
Sconfig 0.00000 grat error: on grat reply: on
Sconfig 0.00000 $reply for props: on ring 0 search: on
Sconfig 0.00000 using MOBICACHE
M 1.00000 0 (3385.00, 3955.00, 0.00), (3561.00, 3841.00), 10.00
s 1.000000000 _0_ AGT  --- 0 tcp 40 [0 0 0 0] ------- [0:0 29:0 32 0] [0 -1] 0 0
r 1.000000000 _0_ RTR  --- 0 tcp 40 [0 0 0 0] ------- [0:0 29:0 32 0] [0 -1] 0 0
s 1.007481398 _0_ RTR  --- 1 DSR 32 [0 0 0 0] ------- [0:255 29:255 32 0] 1 [1 1] [0 1 0 0->0] [0 0 0 0->0]
s 1.007936398 _0_ MAC  --- 1 DSR 90 [0 ffffffff 0 800] ------- [0:255 29:255 32 0] 1 [1 1] [0 1 0 0->0] [0 0 0 0->0]
r 1.008656716 _21_ MAC  --- 1 DSR 32 [0 ffffffff 0 800] ------- [0:255 29:255 32 0] 1 [1 1] [0 1 0 0->0] [0 0 0 0->0]
r 1.008657079 _16_ MAC  --- 1 DSR 32 [0 ffffffff 0 800] ------- [0:255 29:255 32 0] 1 [1 1] [0 1 0 0->0] [0 0 0 0->0]
r 1.008657115 _9_ MAC  --- 1 DSR 32 [0 ffffffff 0 800] ------- [0:255 29:255 32 0] 1 [1 1] [0 1 0 0->0] [0 0 0 0->0]
r 1.008657146 _27_ MAC  --- 1 DSR 32 [0 ffffffff 0 800] ------- [0:255 29:255 32 0] 1 [1 1] [0 1 0 0->0] [0 0 0 0->0]
r 1.008657190 _8_ MAC  --- 1 DSR 32 [0 ffffffff 0 800] ------- [0:255 29:255 32 0] 1 [1 1] [0 1 0 0->0] [0 0 0 0->0]
r 1.008681716 _21_ RTR  --- 1 DSR 32 [0 ffffffff 0 800] ------- [0:255 29:255 32 0] 1 [1 1] [0 1 0 0->0] [0 0 0 0->0]
r 1.008682079 _16_ RTR  --- 1 DSR 32 [0 ffffffff 0 800] ------- [0:255 29:255 32 0] 1 [1 1] [0 1 0 0->0] [0 0 0 0->0]
r 1.008682115 _9_ RTR  --- 1 DSR 32 [0 ffffffff 0 800] ------- [0:255 29:255 32 0] 1 [1 1] [0 1 0 0->0] [0 0 0 0->0]
r 1.008682146 _27_ RTR  --- 1 DSR 32 [0 ffffffff 0 800] ------- [0:255 29:255 32 0] 1 [1 1] [0 1 0 0->0] [0 0 0 0->0]
r 1.008682190 _8_ RTR  --- 1 DSR 32 [0 ffffffff 0 800] ------- [0:255 29:255 32 0] 1 [1 1] [0 1 0 0->0] [0 0 0 0->0]
s 1.042549037 _0_ RTR  --- 2 DSR 32 [0 0 0 0] ------- [0:255 29:255 32 0] 1 [1 2] [0 2 0 0->0] [0 0 0 0->0]
s 1.043104037 _0_ MAC  --- 2 DSR 90 [0 ffffffff 0 800] ------- [0:255 29:255 32 0] 1 [1 2] [0 2 0 0->0] [0 0 0 0->0]
r 1.043824354 _21_ MAC  --- 2 DSR 32 [0 ffffffff 0 800] ------- [0:255 29:255 32 0] 1 [1 2] [0 2 0 0->0] [0 0 0 0->0]
r 1.043824720 _16_ MAC  --- 2 DSR 32 [0 ffffffff 0 800] ------- [0:255 29:255 32 0] 1 [1 2] [0 2 0 0->0] [0 0 0 0->0]
r 1.043824754 _9_ MAC  --- 2 DSR 32 [0 ffffffff 0 800] ------- [0:255 29:255 32 0] 1 [1 2] [0 2 0 0->0] [0 0 0 0->0]
r 1.043824786 _27_ MAC  --- 2 DSR 32 [0 ffffffff 0 800] ------- [0:255 29:255 32 0] 1 [1 2] [0 2 0 0->0] [0 0 0 0->0]
r 1.043824830 _8_ MAC  --- 2 DSR 32 [0 ffffffff 0 800] ------- [0:255 29:255 32 0] 1 [1 2] [0 2 0 0->0] [0 0 0 0->0]
r 1.043849354 _21_ RTR  --- 2 DSR 32 [0 ffffffff 0 800] ------- [0:255 29:255 32 0] 1 [1 2] [0 2 0 0->0] [0 0 0 0->0]
r 1.043849720 _16_ RTR  --- 2 DSR 32 [0 ffffffff 0 800] ------- [0:255 29:255 32 0] 1 [1 2] [0 2 0 0->0] [0 0 0 0->0]
r 1.043849754 _9_ RTR  --- 2 DSR 32 [0 ffffffff 0 800] ------- [0:255 29:255 32 0] 1 [1 2] [0 2 0 0->0] [0 0 0 0->0]
r 1.043849786 _27_ RTR  --- 2 DSR 32 [0 ffffffff 0 800] ------- [0:255 29:255 32 0] 1 [1 2] [0 2 0 0->0] [0 0 0 0->0]
r 1.043849830 _8_ RTR  --- 2 DSR 32 [0 ffffffff 0 800] ------- [0:255 29:255 32 0] 1 [1 2] [0 2 0 0->0] [0 0 0 0->0]
f 1.043902429 _8_ RTR  --- 2 DSR 48 [0 ffffffff 0 800] ------- [0:255 29:255 32 0] 2 [1 2] [0 2 0 0->0] [0 0 0 0->0]
s 1.044397429 _8_ MAC  --- 2 DSR 106 [0 ffffffff 8 800] ------- [0:255 29:255 32 0] 2 [1 2] [0 2 0 0->0] [0 0 0 0->0]
f 1.044630068 _21_ RTR  --- 2 DSR 48 [0 ffffffff 0 800] ------- [0:255 29:255 32 0] 2 [1 2] [0 2 0 0->0] [0 0 0 0->0]
r 1.045245767 _2_ MAC  --- 2 DSR 48 [0 ffffffff 8 800] ------- [0:255 29:255 32 0] 2 [1 2] [0 2 0 0->0] [0 0 0 0->0]
r 1.045245934 _27_ MAC  --- 2 DSR 48 [0 ffffffff 8 800] ------- [0:255 29:255 32 0] 2 [1 2] [0 2 0 0->0] [0 0 0 0->0]
r 1.045246161 _16_ MAC  --- 2 DSR 48 [0 ffffffff 8 800] ------- [0:255 29:255 32 0] 2 [1 2] [0 2 0 0->0] [0 0 0 0->0]
r 1.045246222 _0_ MAC  --- 2 DSR 48 [0 ffffffff 8 800] ------- [0:255 29:255 32 0] 2 [1 2] [0 2 0 0->0] [0 0 0 0->0]
r 1.045270767 _2_ RTR  --- 2 DSR 48 [0 ffffffff 8 800] ------- [0:255 29:255 32 0] 2 [1 2] [0 2 0 0->0] [0 0 0 0->0]
r 1.045270934 _27_ RTR  --- 2 DSR 48 [0 ffffffff 8 800] ------- [0:255 29:255 32 0] 2 [1 2] [0 2 0 0->0] [0 0 0 0->0]
r 1.045271161 _16_ RTR  --- 2 DSR 48 [0 ffffffff 8 800] ------- [0:255 29:255 32 0] 2 [1 2] [0 2 0 0->0] [0 0 0 0->0]
r 1.045271222 _0_ RTR  --- 2 DSR 48 [0 ffffffff 8 800] ------- [0:255 29:255 32 0] 2 [1 2] [0 2 0 0->0] [0 0 0 0->0]
s 1.045840528 _21_ MAC  --- 2 DSR 106 [0 ffffffff 15 800] ------- [0:255 29:255 32 0] 2 [1 2] [0 2 0 0->0] [0 0 0 0->0]
f 1.046583350 _27_ RTR  --- 2 DSR 48 [0 ffffffff 0 800] ------- [0:255 29:255 32 0] 2 [1 2] [0 2 0 0->0] [0 0 0 0->0]
r 1.046688845 _0_ MAC  --- 2 DSR 48 [0 ffffffff 15 800] ------- [0:255 29:255 32 0] 2 [1 2] [0 2 0 0->0] [0 0 0 0->0]
r 1.046689227 _9_ MAC  --- 2 DSR 48 [0 ffffffff 15 800] ------- [0:255 29:255 32 0] 2 [1 2] [0 2 0 0->0] [0 0 0 0->0]
r 1.046713845 _0_ RTR  --- 2 DSR 48 [0 ffffffff 15 800] ------- [0:255 29:255 32 0] 2 [1 2] [0 2 0 0->0] [0 0 0 0->0]
r 1.046714227 _9_ RTR  --- 2 DSR 48 [0 ffffffff 15 800] ------- [0:255 29:255 32 0] 2 [1 2] [0 2 0 0->0] [0 0 0 0->0]
s 1.047563488 _27_ MAC  --- 2 DSR 106 [0 ffffffff 1b 800] ------- [0:255 29:255 32 0] 2 [1 2] [0 2 0 0->0] [0 0 0 0->0]
f 1.047879465 _9_ RTR  --- 2 DSR 48 [0 ffffffff 0 800] ------- [0:255 29:255 32 0] 2 [1 2] [0 2 0 0->0] [0 0 0 0->0]
r 1.048411728 _2_ MAC  --- 2 DSR 48 [0 ffffffff 1b 800] ------- [0:255 29:255 32 0] 2 [1 2] [0 2 0 0->0] [0 0 0 0->0]
r 1.048411994 _8_ MAC  --- 2 DSR 48 [0 ffffffff 1b 800] ------- [0:255 29:255 32 0] 2 [1 2] [0 2 0 0->0] [0 0 0 0->0]
r 1.048412102 _9_ MAC  --- 2 DSR 48 [0 ffffffff 1b 800] ------- [0:255 29:255 32 0] 2 [1 2] [0 2 0 0->0] [0 0 0 0->0]
r 1.048412179 _12_ MAC  --- 2 DSR 48 [0 ffffffff 1b 800] ------- [0:255 29:255 32 0] 2 [1 2] [0 2 0 0->0] [0 0 0 0->0]
r 1.048412237 _0_ MAC  --- 2 DSR 48 [0 ffffffff 1b 800] ------- [0:255 29:255 32 0] 2 [1 2] [0 2 0 0->0] [0 0 0 0->0]
r 1.048436728 _2_ RTR  --- 2 DSR 48 [0 ffffffff 1b 800] ------- [0:255 29:255 32 0] 2 [1 2] [0 2 0 0->0] [0 0 0 0->0]
r 1.048436994 _8_ RTR  --- 2 DSR 48 [0 ffffffff 1b 800] ------- [0:255 29:255 32 0] 2 [1 2] [0 2 0 0->0] [0 0 0 0->0]
r 1.048437102 _9_ RTR  --- 2 DSR 48 [0 ffffffff 1b 800] ------- [0:255 29:255 32 0] 2 [1 2] [0 2 0 0->0] [0 0 0 0->0]
r 1.048437179 _12_ RTR  --- 2 DSR 48 [0 ffffffff 1b 800] ------- [0:255 29:255 32 0] 2 [1 2] [0 2 0 0->0] [0 0 0 0->0]
r 1.048437237 _0_ RTR  --- 2 DSR 48 [0 ffffffff 1b 800] ------- [0:255 29:255 32 0] 2 [1 2] [0 2 0 0->0] [0 0 0 0->0]
f 1.048468187 _12_ RTR  --- 2 DSR 68 [0 ffffffff 1b 800] ------- [0:255 29:255 32 0] 3 [1 2] [0 2 0 0->0] [0 0 0 0->0]
s 1.048723187 _12_ MAC  --- 2 DSR 126 [0 ffffffff c 800] ------- [0:255 29:255 32 0] 3 [1 2] [0 2 0 0->0] [0 0 0 0->0]
f 1.049618653 _2_ RTR  --- 2 DSR 68 [0 ffffffff 8 800] ------- [0:255 29:255 32 0] 3 [1 2] [0 2 0 0->0] [0 0 0 0->0]
r 1.049731540 _24_ MAC  --- 2 DSR 68 [0 ffffffff c 800] ------- [0:255 29:255 32 0] 3 [1 2] [0 2 0 0->0] [0 0 0 0->0]
r 1.049731687 _15_ MAC  --- 2 DSR 68 [0 ffffffff c 800] ------- [0:255 29:255 32 0] 3 [1 2] [0 2 0 0->0] [0 0 0 0->0]
r 1.049731818 _9_ MAC  --- 2 DSR 68 [0 ffffffff c 800] ------- [0:255 29:255 32 0] 3 [1 2] [0 2 0 0->0] [0 0 0 0->0]
r 1.049731878 _27_ MAC  --- 2 DSR 68 [0 ffffffff c 800] ------- [0:255 29:255 32 0] 3 [1 2] [0 2 0 0->0] [0 0 0 0->0]
r 1.049731918 _22_ MAC  --- 2 DSR 68 [0 ffffffff c 800] ------- [0:255 29:255 32 0] 3 [1 2] [0 2 0 0->0] [0 0 0 0->0]
r 1.049731968 _26_ MAC  --- 2 DSR 68 [0 ffffffff c 800] ------- [0:255 29:255 32 0] 3 [1 2] [0 2 0 0->0] [0 0 0 0->0]
r 1.049732018 _28_ MAC  --- 2 DSR 68 [0 ffffffff c 800] ------- [0:255 29:255 32 0] 3 [1 2] [0 2 0 0->0] [0 0 0 0->0]
r 1.049756540 _24_ RTR  --- 2 DSR 68 [0 ffffffff c 800] ------- [0:255 29:255 32 0] 3 [1 2] [0 2 0 0->0] [0 0 0 0->0]
r 1.049756687 _15_ RTR  --- 2 DSR 68 [0 ffffffff c 800] ------- [0:255 29:255 32 0] 3 [1 2] [0 2 0 0->0] [0 0 0 0->0]
r 1.049756818 _9_ RTR  --- 2 DSR 68 [0 ffffffff c 800] ------- [0:255 29:255 32 0] 3 [1 2] [0 2 0 0->0] [0 0 0 0->0]
r 1.049756878 _27_ RTR  --- 2 DSR 68 [0 ffffffff c 800] ------- [0:255 29:255 32 0] 3 [1 2] [0 2 0 0->0] [0 0 0 0->0]
r 1.049756918 _22_ RTR  --- 2 DSR 68 [0 ffffffff c 800] ------- [0:255 29:255 32 0] 3 [1 2] [0 2 0 0->0] [0 0 0 0->0]
r 1.049756968 _26_ RTR  --- 2 DSR 68 [0 ffffffff c 800] ------- [0:255 29:255 32 0] 3 [1 2] [0 2 0 0->0] [0 0 0 0->0]
r 1.049757018 _28_ RTR  --- 2 DSR 68 [0 ffffffff c 800] ------- [0:255 29:255 32 0] 3 [1 2] [0 2 0 0->0] [0 0 0 0->0]
s 1.049941818 _9_ MAC  --- 2 DSR 106 [0 ffffffff 9 800] ------- [0:255 29:255 32 0] 2 [1 2] [0 2 0 0->0] [0 0 0 0->0]
r 1.050790278 _26_ MAC  --- 2 DSR 48 [0 ffffffff 9 800] ------- [0:255 29:255 32 0] 2 [1 2] [0 2 0 0->0] [0 0 0 0->0]
r 1.050790431 _27_ MAC  --- 2 DSR 48 [0 ffffffff 9 800] ------- [0:255 29:255 32 0] 2 [1 2] [0 2 0 0->0] [0 0 0 0->0]
r 1.050790448 _12_ MAC  --- 2 DSR 48 [0 ffffffff 9 800] ------- [0:255 29:255 32 0] 2 [1 2] [0 2 0 0->0] [0 0 0 0->0]
r 1.050790477 _15_ MAC  --- 2 DSR 48 [0 ffffffff 9 800] ------- [0:255 29:255 32 0] 2 [1 2] [0 2 0 0->0] [0 0 0 0->0]
r 1.050790517 _21_ MAC  --- 2 DSR 48 [0 ffffffff 9 800] ------- [0:255 29:255 32 0] 2 [1 2] [0 2 0 0->0] [0 0 0 0->0]
r 1.050790535 _0_ MAC  --- 2 DSR 48 [0 ffffffff 9 800] ------- [0:255 29:255 32 0] 2 [1 2] [0 2 0 0->0] [0 0 0 0->0]
r 1.050790541 _28_ MAC  --- 2 DSR 48 [0 ffffffff 9 800] ------- [0:255 29:255 32 0] 2 [1 2] [0 2 0 0->0] [0 0 0 0->0]
r 1.050815278 _26_ RTR  --- 2 DSR 48 [0 ffffffff 9 800] ------- [0:255 29:255 32 0] 2 [1 2] [0 2 0 0->0] [0 0 0 0->0]
r 1.050815431 _27_ RTR  --- 2 DSR 48 [0 ffffffff 9 800] ------- [0:255 29:255 32 0] 2 [1 2] [0 2 0 0->0] [0 0 0 0->0]
r 1.050815448 _12_ RTR  --- 2 DSR 48 [0 ffffffff 9 800] ------- [0:255 29:255 32 0] 2 [1 2] [0 2 0 0->0] [0 0 0 0->0]
r 1.050815477 _15_ RTR  --- 2 DSR 48 [0 ffffffff 9 800] ------- [0:255 29:255 32 0] 2 [1 2] [0 2 0 0->0] [0 0 0 0->0]
r 1.050815517 _21_ RTR  --- 2 DSR 48 [0 ffffffff 9 800] ------- [0:255 29:255 32 0] 2 [1 2] [0 2 0 0->0] [0 0 0 0->0]
r 1.050815535 _0_ RTR  --- 2 DSR 48 [0 ffffffff 9 800] ------- [0:255 29:255 32 0] 2 [1 2] [0 2 0 0->0] [0 0 0 0->0]
r 1.050815541 _28_ RTR  --- 2 DSR 48 [0 ffffffff 9 800] ------- [0:255 29:255 32 0] 2 [1 2] [0 2 0 0->0] [0 0 0 0->0]
f 1.051168518 _28_ RTR  --- 2 DSR 92 [0 ffffffff c 800] ------- [0:255 29:255 32 0] 4 [1 2] [0 2 0 0->0] [0 0 0 0->0]
s 1.051604669 _2_ MAC  --- 2 DSR 126 [0 ffffffff 2 800] ------- [0:255 29:255 32 0] 3 [1 2] [0 2 0 0->0] [0 0 0 0->0]
f 1.052094926 _26_ RTR  --- 2 DSR 92 [0 ffffffff c 800] ------- [0:255 29:255 32 0] 4 [1 2] [0 2 0 0->0] [0 0 0 0->0]
r 1.052612908 _27_ MAC  --- 2 DSR 68 [0 ffffffff 2 800] ------- [0:255 29:255 32 0] 3 [1 2] [0 2 0 0->0] [0 0 0 0->0]
r 1.052613007 _8_ MAC  --- 2 DSR 68 [0 ffffffff 2 800] ------- [0:255 29:255 32 0] 3 [1 2] [0 2 0 0->0] [0 0 0 0->0]
r 1.052637908 _27_ RTR  --- 2 DSR 68 [0 ffffffff 2 800] ------- [0:255 29:255 32 0] 3 [1 2] [0 2 0 0->0] [0 0 0 0->0]
r 1.052638007 _8_ RTR  --- 2 DSR 68 [0 ffffffff 2 800] ------- [0:255 29:255 32 0] 3 [1 2] [0 2 0 0->0] [0 0 0 0->0]
s 1.053048170 _28_ MAC  --- 2 DSR 150 [0 ffffffff 1c 800] ------- [0:255 29:255 32 0] 4 [1 2] [0 2 0 0->0] [0 0 0 0->0]
f 1.053368884 _16_ RTR  --- 2 DSR 48 [0 ffffffff 0 800] ------- [0:255 29:255 32 0] 2 [1 2] [0 2 0 0->0] [0 0 0 0->0]
s 1.053703884 _16_ MAC  --- 2 DSR 106 [0 ffffffff 10 800] ------- [0:255 29:255 32 0] 2 [1 2] [0 2 0 0->0] [0 0 0 0->0]
r 1.054248329 _7_ MAC  --- 2 DSR 92 [0 ffffffff 1c 800] ------- [0:255 29:255 32 0] 4 [1 2] [0 2 0 0->0] [0 0 0 0->0]
r 1.054248471 _26_ MAC  --- 2 DSR 92 [0 ffffffff 1c 800] ------- [0:255 29:255 32 0] 4 [1 2] [0 2 0 0->0] [0 0 0 0->0]
r 1.054248531 _15_ MAC  --- 2 DSR 92 [0 ffffffff 1c 800] ------- [0:255 29:255 32 0] 4 [1 2] [0 2 0 0->0] [0 0 0 0->0]
r 1.054248677 _18_ MAC  --- 2 DSR 92 [0 ffffffff 1c 800] ------- [0:255 29:255 32 0] 4 [1 2] [0 2 0 0->0] [0 0 0 0->0]
r 1.054248821 _13_ MAC  --- 2 DSR 92 [0 ffffffff 1c 800] ------- [0:255 29:255 32 0] 4 [1 2] [0 2 0 0->0] [0 0 0 0->0]
r 1.054248825 _3_ MAC  --- 2 DSR 92 [0 ffffffff 1c 800] ------- [0:255 29:255 32 0] 4 [1 2] [0 2 0 0->0] [0 0 0 0->0]
r 1.054248865 _24_ MAC  --- 2 DSR 92 [0 ffffffff 1c 800] ------- [0:255 29:255 32 0] 4 [1 2] [0 2 0 0->0] [0 0 0 0->0]
r 1.054248893 _9_ MAC  --- 2 DSR 92 [0 ffffffff 1c 800] ------- [0:255 29:255 32 0] 4 [1 2] [0 2 0 0->0] [0 0 0 0->0]
r 1.054249000 _12_ MAC  --- 2 DSR 92 [0 ffffffff 1c 800] ------- [0:255 29:255 32 0] 4 [1 2] [0 2 0 0->0] [0 0 0 0->0]
r 1.054273329 _7_ RTR  --- 2 DSR 92 [0 ffffffff 1c 800] ------- [0:255 29:255 32 0] 4 [1 2] [0 2 0 0->0] [0 0 0 0->0]
r 1.054273471 _26_ RTR  --- 2 DSR 92 [0 ffffffff 1c 800] ------- [0:255 29:255 32 0] 4 [1 2] [0 2 0 0->0] [0 0 0 0->0]
r 1.054273531 _15_ RTR  --- 2 DSR 92 [0 ffffffff 1c 800] ------- [0:255 29:255 32 0] 4 [1 2] [0 2 0 0->0] [0 0 0 0->0]
r 1.054273677 _18_ RTR  --- 2 DSR 92 [0 ffffffff 1c 800] ------- [0:255 29:255 32 0] 4 [1 2] [0 2 0 0->0] [0 0 0 0->0]
r 1.054273821 _13_ RTR  --- 2 DSR 92 [0 ffffffff 1c 800] ------- [0:255 29:255 32 0] 4 [1 2] [0 2 0 0->0] [0 0 0 0->0]
r 1.054273825 _3_ RTR  --- 2 DSR 92 [0 ffffffff 1c 800] ------- [0:255 29:255 32 0] 4 [1 2] [0 2 0 0->0] [0 0 0 0->0]
r 1.054273865 _24_ RTR  --- 2 DSR 92 [0 ffffffff 1c 800] ------- [0:255 29:255 32 0] 4 [1 2] [0 2 0 0->0] [0 0 0 0->0]
r 1.054273893 _9_ RTR  --- 2 DSR 92 [0 ffffffff 1c 800] ------- [0:255 29:255 32 0] 4 [1 2] [0 2 0 0->0] [0 0 0 0->0]
r 1.054274000 _12_ RTR  --- 2 DSR 92 [0 ffffffff 1c 800] ------- [0:255 29:255 32 0] 4 [1 2] [0 2 0 0->0] [0 0 0 0->0]
f 1.054440466 _13_ RTR  --- 2 DSR 120 [0 ffffffff 1c 800] ------- [0:255 29:255 32 0] 5 [1 2] [0 2 0 0->0] [0 0 0 0->0]
D 1.054552567 _0_ MAC  COL 2 DSR 106 [0 ffffffff 10 800] ------- [0:255 29:255 32 0] 2 [1 2] [0 2 0 0->0] [0 0 0 0->0]
D 1.054552616 _8_ MAC  COL 2 DSR 106 [0 ffffffff 10 800] ------- [0:255 29:255 32 0] 2 [1 2] [0 2 0 0->0] [0 0 0 0->0]
s 1.054675466 _13_ MAC  --- 2 DSR 178 [0 ffffffff d 800] ------- [0:255 29:255 32 0] 5 [1 2] [0 2 0 0->0] [0 0 0 0->0]
f 1.055078529 _24_ RTR  --- 2 DSR 92 [0 ffffffff c 800] ------- [0:255 29:255 32 0] 4 [1 2] [0 2 0 0->0] [0 0 0 0->0]
f 1.055312311 _15_ RTR  --- 2 DSR 92 [0 ffffffff c 800] ------- [0:255 29:255 32 0] 4 [1 2] [0 2 0 0->0] [0 0 0 0->0]
r 1.056099610 _18_ MAC  --- 2 DSR 120 [0 ffffffff d 800] ------- [0:255 29:255 32 0] 5 [1 2] [0 2 0 0->0] [0 0 0 0->0]
r 1.056099792 _17_ MAC  --- 2 DSR 120 [0 ffffffff d 800] ------- [0:255 29:255 32 0] 5 [1 2] [0 2 0 0->0] [0 0 0 0->0]
r 1.056099821 _10_ MAC  --- 2 DSR 120 [0 ffffffff d 800] ------- [0:255 29:255 32 0] 5 [1 2] [0 2 0 0->0] [0 0 0 0->0]
r 1.056099967 _7_ MAC  --- 2 DSR 120 [0 ffffffff d 800] ------- [0:255 29:255 32 0] 5 [1 2] [0 2 0 0->0] [0 0 0 0->0]
r 1.056100051 _3_ MAC  --- 2 DSR 120 [0 ffffffff d 800] ------- [0:255 29:255 32 0] 5 [1 2] [0 2 0 0->0] [0 0 0 0->0]
r 1.056100117 _28_ MAC  --- 2 DSR 120 [0 ffffffff d 800] ------- [0:255 29:255 32 0] 5 [1 2] [0 2 0 0->0] [0 0 0 0->0]
r 1.056100131 _15_ MAC  --- 2 DSR 120 [0 ffffffff d 800] ------- [0:255 29:255 32 0] 5 [1 2] [0 2 0 0->0] [0 0 0 0->0]
r 1.056100180 _11_ MAC  --- 2 DSR 120 [0 ffffffff d 800] ------- [0:255 29:255 32 0] 5 [1 2] [0 2 0 0->0] [0 0 0 0->0]
r 1.056100234 _24_ MAC  --- 2 DSR 120 [0 ffffffff d 800] ------- [0:255 29:255 32 0] 5 [1 2] [0 2 0 0->0] [0 0 0 0->0]
r 1.056100234 _19_ MAC  --- 2 DSR 120 [0 ffffffff d 800] ------- [0:255 29:255 32 0] 5 [1 2] [0 2 0 0->0] [0 0 0 0->0]
r 1.056124610 _18_ RTR  --- 2 DSR 120 [0 ffffffff d 800] ------- [0:255 29:255 32 0] 5 [1 2] [0 2 0 0->0] [0 0 0 0->0]
r 1.056124792 _17_ RTR  --- 2 DSR 120 [0 ffffffff d 800] ------- [0:255 29:255 32 0] 5 [1 2] [0 2 0 0->0] [0 0 0 0->0]
r 1.056124821 _10_ RTR  --- 2 DSR 120 [0 ffffffff d 800] ------- [0:255 29:255 32 0] 5 [1 2] [0 2 0 0->0] [0 0 0 0->0]
r 1.056124967 _7_ RTR  --- 2 DSR 120 [0 ffffffff d 800] ------- [0:255 29:255 32 0] 5 [1 2] [0 2 0 0->0] [0 0 0 0->0]
r 1.056125051 _3_ RTR  --- 2 DSR 120 [0 ffffffff d 800] ------- [0:255 29:255 32 0] 5 [1 2] [0 2 0 0->0] [0 0 0 0->0]
r 1.056125117 _28_ RTR  --- 2 DSR 120 [0 ffffffff d 800] ------- [0:255 29:255 32 0] 5 [1 2] [0 2 0 0->0] [0 0 0 0->0]
r 1.056125131 _15_ RTR  --- 2 DSR 120 [0 ffffffff d 800] ------- [0:255 29:255 32 0] 5 [1 2] [0 2 0 0->0] [0 0 0 0->0]
r 1.056125180 _11_ RTR  --- 2 DSR 120 [0 ffffffff d 800] ------- [0:255 29:255 32 0] 5 [1 2] [0 2 0 0->0] [0 0 0 0->0]
r 1.056125234 _24_ RTR  --- 2 DSR 120 [0 ffffffff d 800] ------- [0:255 29:255 32 0] 5 [1 2] [0 2 0 0->0] [0 0 0 0->0]
r 1.056125234 _19_ RTR  --- 2 DSR 120 [0 ffffffff d 800] ------- [0:255 29:255 32 0] 5 [1 2] [0 2 0 0->0] [0 0 0 0->0]
s 1.056370131 _15_ MAC  --- 2 DSR 150 [0 ffffffff f 800] ------- [0:255 29:255 32 0] 4 [1 2] [0 2 0 0->0] [0 0 0 0->0]
f 1.056460557 _22_ RTR  --- 2 DSR 92 [0 ffffffff c 800] ------- [0:255 29:255 32 0] 4 [1 2] [0 2 0 0->0] [0 0 0 0->0]
f 1.056937794 _18_ RTR  --- 2 DSR 120 [0 ffffffff 1c 800] ------- [0:255 29:255 32 0] 5 [1 2] [0 2 0 0->0] [0 0 0 0->0]
f 1.057256622 _7_ RTR  --- 2 DSR 120 [0 ffffffff 1c 800] ------- [0:255 29:255 32 0] 5 [1 2] [0 2 0 0->0] [0 0 0 0->0]
r 1.057570470 _24_ MAC  --- 2 DSR 92 [0 ffffffff f 800] ------- [0:255 29:255 32 0] 4 [1 2] [0 2 0 0->0] [0 0 0 0->0]
r 1.057570492 _28_ MAC  --- 2 DSR 92 [0 ffffffff f 800] ------- [0:255 29:255 32 0] 4 [1 2] [0 2 0 0->0] [0 0 0 0->0]
r 1.057570534 _7_ MAC  --- 2 DSR 92 [0 ffffffff f 800] ------- [0:255 29:255 32 0] 4 [1 2] [0 2 0 0->0] [0 0 0 0->0]
r 1.057570593 _26_ MAC  --- 2 DSR 92 [0 ffffffff f 800] ------- [0:255 29:255 32 0] 4 [1 2] [0 2 0 0->0] [0 0 0 0->0]
r 1.057570631 _12_ MAC  --- 2 DSR 92 [0 ffffffff f 800] ------- [0:255 29:255 32 0] 4 [1 2] [0 2 0 0->0] [0 0 0 0->0]
r 1.057570672 _18_ MAC  --- 2 DSR 92 [0 ffffffff f 800] ------- [0:255 29:255 32 0] 4 [1 2] [0 2 0 0->0] [0 0 0 0->0]
r 1.057570790 _9_ MAC  --- 2 DSR 92 [0 ffffffff f 800] ------- [0:255 29:255 32 0] 4 [1 2] [0 2 0 0->0] [0 0 0 0->0]
r 1.057570796 _13_ MAC  --- 2 DSR 92 [0 ffffffff f 800] ------- [0:255 29:255 32 0] 4 [1 2] [0 2 0 0->0] [0 0 0 0->0]
r 1.057570951 _19_ MAC  --- 2 DSR 92 [0 ffffffff f 800] ------- [0:255 29:255 32 0] 4 [1 2] [0 2 0 0->0] [0 0 0 0->0]
r 1.057595470 _24_ RTR  --- 2 DSR 92 [0 ffffffff f 800] ------- [0:255 29:255 32 0] 4 [1 2] [0 2 0 0->0] [0 0 0 0->0]
r 1.057595492 _28_ RTR  --- 2 DSR 92 [0 ffffffff f 800] ------- [0:255 29:255 32 0] 4 [1 2] [0 2 0 0->0] [0 0 0 0->0]
r 1.057595534 _7_ RTR  --- 2 DSR 92 [0 ffffffff f 800] ------- [0:255 29:255 32 0] 4 [1 2] [0 2 0 0->0] [0 0 0 0->0]
r 1.057595593 _26_ RTR  --- 2 DSR 92 [0 ffffffff f 800] ------- [0:255 29:255 32 0] 4 [1 2] [0 2 0 0->0] [0 0 0 0->0]
r 1.057595631 _12_ RTR  --- 2 DSR 92 [0 ffffffff f 800] ------- [0:255 29:255 32 0] 4 [1 2] [0 2 0 0->0] [0 0 0 0->0]
r 1.057595672 _18_ RTR  --- 2 DSR 92 [0 ffffffff f 800] ------- [0:255 29:255 32 0] 4 [1 2] [0 2 0 0->0] [0 0 0 0->0]
r 1.057595790 _9_ RTR  --- 2 DSR 92 [0 ffffffff f 800] ------- [0:255 29:255 32 0] 4 [1 2] [0 2 0 0->0] [0 0 0 0->0]
r 1.057595796 _13_ RTR  --- 2 DSR 92 [0 ffffffff f 800] ------- [0:255 29:255 32 0] 4 [1 2] [0 2 0 0->0] [0 0 0 0->0]
r 1.057595951 _19_ RTR  --- 2 DSR 92 [0 ffffffff f 800] ------- [0:255 29:255 32 0] 4 [1 2] [0 2 0 0->0] [0 0 0 0->0]
s 1.057900534 _7_ MAC  --- 2 DSR 178 [0 ffffffff 7 800] ------- [0:255 29:255 32 0] 5 [1 2] [0 2 0 0->0] [0 0 0 0->0]
f 1.059066440 _11_ RTR  --- 2 DSR 152 [0 ffffffff d 800] ------- [0:255 29:255 32 0] 6 [1 2] [0 2 0 0->0] [0 0 0 0->0]
r 1.059324693 _28_ MAC  --- 2 DSR 120 [0 ffffffff 7 800] ------- [0:255 29:255 32 0] 5 [1 2] [0 2 0 0->0] [0 0 0 0->0]
r 1.059324893 _18_ MAC  --- 2 DSR 120 [0 ffffffff 7 800] ------- [0:255 29:255 32 0] 5 [1 2] [0 2 0 0->0] [0 0 0 0->0]
r 1.059324937 _15_ MAC  --- 2 DSR 120 [0 ffffffff 7 800] ------- [0:255 29:255 32 0] 5 [1 2] [0 2 0 0->0] [0 0 0 0->0]
r 1.059324995 _26_ MAC  --- 2 DSR 120 [0 ffffffff 7 800] ------- [0:255 29:255 32 0] 5 [1 2] [0 2 0 0->0] [0 0 0 0->0]
r 1.059325035 _13_ MAC  --- 2 DSR 120 [0 ffffffff 7 800] ------- [0:255 29:255 32 0] 5 [1 2] [0 2 0 0->0] [0 0 0 0->0]
r 1.059325068 _3_ MAC  --- 2 DSR 120 [0 ffffffff 7 800] ------- [0:255 29:255 32 0] 5 [1 2] [0 2 0 0->0] [0 0 0 0->0]
r 1.059325238 _24_ MAC  --- 2 DSR 120 [0 ffffffff 7 800] ------- [0:255 29:255 32 0] 5 [1 2] [0 2 0 0->0] [0 0 0 0->0]
r 1.059325322 _17_ MAC  --- 2 DSR 120 [0 ffffffff 7 800] ------- [0:255 29:255 32 0] 5 [1 2] [0 2 0 0->0] [0 0 0 0->0]
r 1.059325363 _10_ MAC  --- 2 DSR 120 [0 ffffffff 7 800] ------- [0:255 29:255 32 0] 5 [1 2] [0 2 0 0->0] [0 0 0 0->0]
r 1.059349693 _28_ RTR  --- 2 DSR 120 [0 ffffffff 7 800] ------- [0:255 29:255 32 0] 5 [1 2] [0 2 0 0->0] [0 0 0 0->0]
r 1.059349893 _18_ RTR  --- 2 DSR 120 [0 ffffffff 7 800] ------- [0:255 29:255 32 0] 5 [1 2] [0 2 0 0->0] [0 0 0 0->0]
r 1.059349937 _15_ RTR  --- 2 DSR 120 [0 ffffffff 7 800] ------- [0:255 29:255 32 0] 5 [1 2] [0 2 0 0->0] [0 0 0 0->0]
r 1.059349995 _26_ RTR  --- 2 DSR 120 [0 ffffffff 7 800] ------- [0:255 29:255 32 0] 5 [1 2] [0 2 0 0->0] [0 0 0 0->0]
r 1.059350035 _13_ RTR  --- 2 DSR 120 [0 ffffffff 7 800] ------- [0:255 29:255 32 0] 5 [1 2] [0 2 0 0->0] [0 0 0 0->0]
r 1.059350068 _3_ RTR  --- 2 DSR 120 [0 ffffffff 7 800] ------- [0:255 29:255 32 0] 5 [1 2] [0 2 0 0->0] [0 0 0 0->0]
r 1.059350238 _24_ RTR  --- 2 DSR 120 [0 ffffffff 7 800] ------- [0:255 29:255 32 0] 5 [1 2] [0 2 0 0->0] [0 0 0 0->0]
r 1.059350322 _17_ RTR  --- 2 DSR 120 [0 ffffffff 7 800] ------- [0:255 29:255 32 0] 5 [1 2] [0 2 0 0->0] [0 0 0 0->0]
r 1.059350363 _10_ RTR  --- 2 DSR 120 [0 ffffffff 7 800] ------- [0:255 29:255 32 0] 5 [1 2] [0 2 0 0->0] [0 0 0 0->0]
s 1.059435238 _24_ MAC  --- 2 DSR 150 [0 ffffffff 18 800] ------- [0:255 29:255 32 0] 4 [1 2] [0 2 0 0->0] [0 0 0 0->0]
r 1.060635577 _15_ MAC  --- 2 DSR 92 [0 ffffffff 18 800] ------- [0:255 29:255 32 0] 4 [1 2] [0 2 0 0->0] [0 0 0 0->0]
r 1.060635590 _12_ MAC  --- 2 DSR 92 [0 ffffffff 18 800] ------- [0:255 29:255 32 0] 4 [1 2] [0 2 0 0->0] [0 0 0 0->0]
r 1.060635803 _19_ MAC  --- 2 DSR 92 [0 ffffffff 18 800] ------- [0:255 29:255 32 0] 4 [1 2] [0 2 0 0->0] [0 0 0 0->0]
r 1.060635929 _18_ MAC  --- 2 DSR 92 [0 ffffffff 18 800] ------- [0:255 29:255 32 0] 4 [1 2] [0 2 0 0->0] [0 0 0 0->0]
r 1.060635932 _28_ MAC  --- 2 DSR 92 [0 ffffffff 18 800] ------- [0:255 29:255 32 0] 4 [1 2] [0 2 0 0->0] [0 0 0 0->0]
r 1.060635941 _7_ MAC  --- 2 DSR 92 [0 ffffffff 18 800] ------- [0:255 29:255 32 0] 4 [1 2] [0 2 0 0->0] [0 0 0 0->0]
r 1.060636005 _13_ MAC  --- 2 DSR 92 [0 ffffffff 18 800] ------- [0:255 29:255 32 0] 4 [1 2] [0 2 0 0->0] [0 0 0 0->0]
r 1.060636018 _26_ MAC  --- 2 DSR 92 [0 ffffffff 18 800] ------- [0:255 29:255 32 0] 4 [1 2] [0 2 0 0->0] [0 0 0 0->0]
r 1.060636061 _22_ MAC  --- 2 DSR 92 [0 ffffffff 18 800] ------- [0:255 29:255 32 0] 4 [1 2] [0 2 0 0->0] [0 0 0 0->0]
r 1.060636068 _10_ MAC  --- 2 DSR 92 [0 ffffffff 18 800] ------- [0:255 29:255 32 0] 4 [1 2] [0 2 0 0->0] [0 0 0 0->0]
r 1.060660577 _15_ RTR  --- 2 DSR 92 [0 ffffffff 18 800] ------- [0:255 29:255 32 0] 4 [1 2] [0 2 0 0->0] [0 0 0 0->0]
r 1.060660590 _12_ RTR  --- 2 DSR 92 [0 ffffffff 18 800] ------- [0:255 29:255 32 0] 4 [1 2] [0 2 0 0->0] [0 0 0 0->0]
r 1.060660803 _19_ RTR  --- 2 DSR 92 [0 ffffffff 18 800] ------- [0:255 29:255 32 0] 4 [1 2] [0 2 0 0->0] [0 0 0 0->0]
r 1.060660929 _18_ RTR  --- 2 DSR 92 [0 ffffffff 18 800] ------- [0:255 29:255 32 0] 4 [1 2] [0 2 0 0->0] [0 0 0 0->0]
r 1.060660932 _28_ RTR  --- 2 DSR 92 [0 ffffffff 18 800] ------- [0:255 29:255 32 0] 4 [1 2] [0 2 0 0->0] [0 0 0 0->0]
r 1.060660941 _7_ RTR  --- 2 DSR 92 [0 ffffffff 18 800] ------- [0:255 29:255 32 0] 4 [1 2] [0 2 0 0->0] [0 0 0 0->0]
r 1.060661005 _13_ RTR  --- 2 DSR 92 [0 ffffffff 18 800] ------- [0:255 29:255 32 0] 4 [1 2] [0 2 0 0->0] [0 0 0 0->0]
r 1.060661018 _26_ RTR  --- 2 DSR 92 [0 ffffffff 18 800] ------- [0:255 29:255 32 0] 4 [1 2] [0 2 0 0->0] [0 0 0 0->0]
r 1.060661061 _22_ RTR  --- 2 DSR 92 [0 ffffffff 18 800] ------- [0:255 29:255 32 0] 4 [1 2] [0 2 0 0->0] [0 0 0 0->0]
r 1.060661068 _10_ RTR  --- 2 DSR 92 [0 ffffffff 18 800] ------- [0:255 29:255 32 0] 4 [1 2] [0 2 0 0->0] [0 0 0 0->0]
s 1.060725929 _18_ MAC  --- 2 DSR 178 [0 ffffffff 12 800] ------- [0:255 29:255 32 0] 5 [1 2] [0 2 0 0->0] [0 0 0 0->0]
f 1.061868633 _17_ RTR  --- 2 DSR 152 [0 ffffffff d 800] ------- [0:255 29:255 32 0] 6 [1 2] [0 2 0 0->0] [0 0 0 0->0]
r 1.062150074 _13_ MAC  --- 2 DSR 120 [0 ffffffff 12 800] ------- [0:255 29:255 32 0] 5 [1 2] [0 2 0 0->0] [0 0 0 0->0]
r 1.062150289 _7_ MAC  --- 2 DSR 120 [0 ffffffff 12 800] ------- [0:255 29:255 32 0] 5 [1 2] [0 2 0 0->0] [0 0 0 0->0]
r 1.062150389 _17_ MAC  --- 2 DSR 120 [0 ffffffff 12 800] ------- [0:255 29:255 32 0] 5 [1 2] [0 2 0 0->0] [0 0 0 0->0]
r 1.062150405 _10_ MAC  --- 2 DSR 120 [0 ffffffff 12 800] ------- [0:255 29:255 32 0] 5 [1 2] [0 2 0 0->0] [0 0 0 0->0]
r 1.062150436 _28_ MAC  --- 2 DSR 120 [0 ffffffff 12 800] ------- [0:255 29:255 32 0] 5 [1 2] [0 2 0 0->0] [0 0 0 0->0]
r 1.062150470 _15_ MAC  --- 2 DSR 120 [0 ffffffff 12 800] ------- [0:255 29:255 32 0] 5 [1 2] [0 2 0 0->0] [0 0 0 0->0]
r 1.062150477 _3_ MAC  --- 2 DSR 120 [0 ffffffff 12 800] ------- [0:255 29:255 32 0] 5 [1 2] [0 2 0 0->0] [0 0 0 0->0]
r 1.062150621 _24_ MAC  --- 2 DSR 120 [0 ffffffff 12 800] ------- [0:255 29:255 32 0] 5 [1 2] [0 2 0 0->0] [0 0 0 0->0]
r 1.062150728 _19_ MAC  --- 2 DSR 120 [0 ffffffff 12 800] ------- [0:255 29:255 32 0] 5 [1 2] [0 2 0 0->0] [0 0 0 0->0]
r 1.062150729 _26_ MAC  --- 2 DSR 120 [0 ffffffff 12 800] ------- [0:255 29:255 32 0] 5 [1 2] [0 2 0 0->0] [0 0 0 0->0]
r 1.062150752 _11_ MAC  --- 2 DSR 120 [0 ffffffff 12 800] ------- [0:255 29:255 32 0] 5 [1 2] [0 2 0 0->0] [0 0 0 0->0]
r 1.062175074 _13_ RTR  --- 2 DSR 120 [0 ffffffff 12 800] ------- [0:255 29:255 32 0] 5 [1 2] [0 2 0 0->0] [0 0 0 0->0]
r 1.062175289 _7_ RTR  --- 2 DSR 120 [0 ffffffff 12 800] ------- [0:255 29:255 32 0] 5 [1 2] [0 2 0 0->0] [0 0 0 0->0]
r 1.062175389 _17_ RTR  --- 2 DSR 120 [0 ffffffff 12 800] ------- [0:255 29:255 32 0] 5 [1 2] [0 2 0 0->0] [0 0 0 0->0]
r 1.062175405 _10_ RTR  --- 2 DSR 120 [0 ffffffff 12 800] ------- [0:255 29:255 32 0] 5 [1 2] [0 2 0 0->0] [0 0 0 0->0]
r 1.062175436 _28_ RTR  --- 2 DSR 120 [0 ffffffff 12 800] ------- [0:255 29:255 32 0] 5 [1 2] [0 2 0 0->0] [0 0 0 0->0]
r 1.062175470 _15_ RTR  --- 2 DSR 120 [0 ffffffff 12 800] ------- [0:255 29:255 32 0] 5 [1 2] [0 2 0 0->0] [0 0 0 0->0]
r 1.062175477 _3_ RTR  --- 2 DSR 120 [0 ffffffff 12 800] ------- [0:255 29:255 32 0] 5 [1 2] [0 2 0 0->0] [0 0 0 0->0]
r 1.062175621 _24_ RTR  --- 2 DSR 120 [0 ffffffff 12 800] ------- [0:255 29:255 32 0] 5 [1 2] [0 2 0 0->0] [0 0 0 0->0]
r 1.062175728 _19_ RTR  --- 2 DSR 120 [0 ffffffff 12 800] ------- [0:255 29:255 32 0] 5 [1 2] [0 2 0 0->0] [0 0 0 0->0]
r 1.062175729 _26_ RTR  --- 2 DSR 120 [0 ffffffff 12 800] ------- [0:255 29:255 32 0] 5 [1 2] [0 2 0 0->0] [0 0 0 0->0]
r 1.062175752 _11_ RTR  --- 2 DSR 120 [0 ffffffff 12 800] ------- [0:255 29:255 32 0] 5 [1 2] [0 2 0 0->0] [0 0 0 0->0]
s 1.062260389 _17_ MAC  --- 2 DSR 210 [0 ffffffff 11 800] ------- [0:255 29:255 32 0] 6 [1 2] [0 2 0 0->0] [0 0 0 0->0]
f 1.062276886 _19_ RTR  --- 2 DSR 152 [0 ffffffff d 800] ------- [0:255 29:255 32 0] 6 [1 2] [0 2 0 0->0] [0 0 0 0->0]
f 1.063018767 _3_ RTR  --- 2 DSR 120 [0 ffffffff 1c 800] ------- [0:255 29:255 32 0] 5 [1 2] [0 2 0 0->0] [0 0 0 0->0]
r 1.063940714 _13_ MAC  --- 2 DSR 152 [0 ffffffff 11 800] ------- [0:255 29:255 32 0] 6 [1 2] [0 2 0 0->0] [0 0 0 0->0]
r 1.063940756 _10_ MAC  --- 2 DSR 152 [0 ffffffff 11 800] ------- [0:255 29:255 32 0] 6 [1 2] [0 2 0 0->0] [0 0 0 0->0]
r 1.063940848 _18_ MAC  --- 2 DSR 152 [0 ffffffff 11 800] ------- [0:255 29:255 32 0] 6 [1 2] [0 2 0 0->0] [0 0 0 0->0]
r 1.063941036 _3_ MAC  --- 2 DSR 152 [0 ffffffff 11 800] ------- [0:255 29:255 32 0] 6 [1 2] [0 2 0 0->0] [0 0 0 0->0]
r 1.063941072 _11_ MAC  --- 2 DSR 152 [0 ffffffff 11 800] ------- [0:255 29:255 32 0] 6 [1 2] [0 2 0 0->0] [0 0 0 0->0]
r 1.063941102 _4_ MAC  --- 2 DSR 152 [0 ffffffff 11 800] ------- [0:255 29:255 32 0] 6 [1 2] [0 2 0 0->0] [0 0 0 0->0]
r 1.063941176 _7_ MAC  --- 2 DSR 152 [0 ffffffff 11 800] ------- [0:255 29:255 32 0] 6 [1 2] [0 2 0 0->0] [0 0 0 0->0]
r 1.063941194 _20_ MAC  --- 2 DSR 152 [0 ffffffff 11 800] ------- [0:255 29:255 32 0] 6 [1 2] [0 2 0 0->0] [0 0 0 0->0]
r 1.063965714 _13_ RTR  --- 2 DSR 152 [0 ffffffff 11 800] ------- [0:255 29:255 32 0] 6 [1 2] [0 2 0 0->0] [0 0 0 0->0]
r 1.063965756 _10_ RTR  --- 2 DSR 152 [0 ffffffff 11 800] ------- [0:255 29:255 32 0] 6 [1 2] [0 2 0 0->0] [0 0 0 0->0]
r 1.063965848 _18_ RTR  --- 2 DSR 152 [0 ffffffff 11 800] ------- [0:255 29:255 32 0] 6 [1 2] [0 2 0 0->0] [0 0 0 0->0]
r 1.063966036 _3_ RTR  --- 2 DSR 152 [0 ffffffff 11 800] ------- [0:255 29:255 32 0] 6 [1 2] [0 2 0 0->0] [0 0 0 0->0]
r 1.063966072 _11_ RTR  --- 2 DSR 152 [0 ffffffff 11 800] ------- [0:255 29:255 32 0] 6 [1 2] [0 2 0 0->0] [0 0 0 0->0]
r 1.063966102 _4_ RTR  --- 2 DSR 152 [0 ffffffff 11 800] ------- [0:255 29:255 32 0] 6 [1 2] [0 2 0 0->0] [0 0 0 0->0]
r 1.063966176 _7_ RTR  --- 2 DSR 152 [0 ffffffff 11 800] ------- [0:255 29:255 32 0] 6 [1 2] [0 2 0 0->0] [0 0 0 0->0]
r 1.063966194 _20_ RTR  --- 2 DSR 152 [0 ffffffff 11 800] ------- [0:255 29:255 32 0] 6 [1 2] [0 2 0 0->0] [0 0 0 0->0]
s 1.064071072 _11_ MAC  --- 2 DSR 210 [0 ffffffff b 800] ------- [0:255 29:255 32 0] 6 [1 2] [0 2 0 0->0] [0 0 0 0->0]
f 1.065615537 _10_ RTR  --- 2 DSR 152 [0 ffffffff d 800] ------- [0:255 29:255 32 0] 6 [1 2] [0 2 0 0->0] [0 0 0 0->0]
r 1.065751411 _6_ MAC  --- 2 DSR 152 [0 ffffffff b 800] ------- [0:255 29:255 32 0] 6 [1 2] [0 2 0 0->0] [0 0 0 0->0]
r 1.065751435 _10_ MAC  --- 2 DSR 152 [0 ffffffff b 800] ------- [0:255 29:255 32 0] 6 [1 2] [0 2 0 0->0] [0 0 0 0->0]