n -t * -s 0  -x 3385 -y 3955 -Z 0 -z 20  -v circle -c black
n -t * -s 1  -x 4077 -y 3400 -Z 0 -z 20  -v circle -c black
n -t * -s 2  -x 3175 -y 3804 -Z 0 -z 20  -v circle -c black
n -t * -s 3  -x 3727 -y 3468 -Z 0 -z 20  -v circle -c black
n -t * -s 4  -x 3824 -y 3383 -Z 0 -z 20  -v circle -c black
n -t * -s 5  -x 3884 -y 3777 -Z 0 -z 20  -v circle -c black
n -t * -s 6  -x 3370 -y 3142 -Z 0 -z 20  -v circle -c black
n -t * -s 7  -x 3581 -y 3534 -Z 0 -z 20  -v circle -c black
n -t * -s 8  -x 3153 -y 3903 -Z 0 -z 20  -v circle -c black
n -t * -s 9  -x 3423 -y 3743 -Z 0 -z 20  -v circle -c black
n -t * -s 10  -x 3516 -y 3294 -Z 0 -z 20  -v circle -c black
n -t * -s 11  -x 3440 -y 3216 -Z 0 -z 20  -v circle -c black
n -t * -s 12  -x 3316 -y 3587 -Z 0 -z 20  -v circle -c black
n -t * -s 13  -x 3573 -y 3384 -Z 0 -z 20  -v circle -c black
n -t * -s 14  -x 4058 -y 3644 -Z 0 -z 20  -v circle -c black
n -t * -s 15  -x 3461 -y 3549 -Z 0 -z 20  -v circle -c black
n -t * -s 16  -x 3244 -y 4103 -Z 0 -z 20  -v circle -c black
n -t * -s 17  -x 3626 -y 3302 -Z 0 -z 20  -v circle -c black
n -t * -s 18  -x 3568 -y 3427 -Z 0 -z 20  -v circle -c black
n -t * -s 19  -x 3349 -y 3330 -Z 0 -z 20  -v circle -c black
n -t * -s 20  -x 3843 -y 3196 -Z 0 -z 20  -v circle -c black
n -t * -s 21  -x 3480 -y 3945 -Z 0 -z 20  -v circle -c black
n -t * -s 22  -x 3127 -y 3476 -Z 0 -z 20  -v circle -c black
n -t * -s 23  -x 3186 -y 3279 -Z 0 -z 20  -v circle -c black
n -t * -s 24  -x 3373 -y 3498 -Z 0 -z 20  -v circle -c black
n -t * -s 25  -x 3175 -y 3122 -Z 0 -z 20  -v circle -c black
n -t * -s 26  -x 3537 -y 3665 -Z 0 -z 20  -v circle -c black
n -t * -s 27  -x 3243 -y 3781 -Z 0 -z 20  -v circle -c black
n -t * -s 28  -x 3565 -y 3579 -Z 0 -z 20  -v circle -c black
n -t * -s 29  -x 3292 -y 3043 -Z 0 -z 20  -v circle -c black
V -t * -v 1.0a5 -a 0
W -t * -x 8254 -y 3941
A -t * -n 1 -p 0 -o 0x7fffffff -c 30 -a 1
A -t * -h 1 -m 1073741823 -s 0
n -t 1.000000 -s 0 -x 3385.000000 -y 3955.000000 -U 8.393142 -V -5.436467 -T 20.969502
+ -t 1.000000000 -s 0 -d -1 -p tcp -e 40 -c 2 -a 0 -i 0 -k AGT 
- -t 1.000000000 -s 0 -d -1 -p tcp -e 40 -c 2 -a 0 -i 0 -k AGT
h -t 1.000000000 -s 0 -d -1 -p tcp -e 40 -c 2 -a 0 -i 0 -k AGT
+ -t 1.007481398 -s 0 -d -1 -p DSR -e 32 -c 2 -a 0 -i 1 -k RTR 
- -t 1.007481398 -s 0 -d -1 -p DSR -e 32 -c 2 -a 0 -i 1 -k RTR
h -t 1.007481398 -s 0 -d -1 -p DSR -e 32 -c 2 -a 0 -i 1 -k RTR
+ -t 1.007936398 -s 0 -d -1 -p DSR -e 90 -c 2 -a 0 -i 1 -k MAC 
- -t 1.007936398 -s 0 -d -1 -p DSR -e 90 -c 2 -a 0 -i 1 -k MAC
h -t 1.007936398 -s 0 -d -1 -p DSR -e 90 -c 2 -a 0 -i 1 -k MAC
r -t 1.008656716 -s 21 -d -1 -p DSR -e 32 -c 2 -a 0 -i 1 -k MAC
r -t 1.008657079 -s 16 -d -1 -p DSR -e 32 -c 2 -a 0 -i 1 -k MAC
r -t 1.008657115 -s 9 -d -1 -p DSR -e 32 -c 2 -a 0 -i 1 -k MAC
r -t 1.008657146 -s 27 -d -1 -p DSR -e 32 -c 2 -a 0 -i 1 -k MAC
r -t 1.008657190 -s 8 -d -1 -p DSR -e 32 -c 2 -a 0 -i 1 -k MAC
+ -t 1.042549037 -s 0 -d -1 -p DSR -e 32 -c 2 -a 0 -i 2 -k RTR 
- -t 1.042549037 -s 0 -d -1 -p DSR -e 32 -c 2 -a 0 -i 2 -k RTR
h -t 1.042549037 -s 0 -d -1 -p DSR -e 32 -c 2 -a 0 -i 2 -k RTR
+ -t 1.043104037 -s 0 -d -1 -p DSR -e 90 -c 2 -a 0 -i 2 -k MAC 
- -t 1.043104037 -s 0 -d -1 -p DSR -e 90 -c 2 -a 0 -i 2 -k MAC
h -t 1.043104037 -s 0 -d -1 -p DSR -e 90 -c 2 -a 0 -i 2 -k MAC
r -t 1.043824354 -s 21 -d -1 -p DSR -e 32 -c 2 -a 0 -i 2 -k MAC
r -t 1.043824720 -s 16 -d -1 -p DSR -e 32 -c 2 -a 0 -i 2 -k MAC
r -t 1.043824754 -s 9 -d -1 -p DSR -e 32 -c 2 -a 0 -i 2 -k MAC
r -t 1.043824786 -s 27 -d -1 -p DSR -e 32 -c 2 -a 0 -i 2 -k MAC
r -t 1.043824830 -s 8 -d -1 -p DSR -e 32 -c 2 -a 0 -i 2 -k MAC
+ -t 1.043902429 -s 8 -d -1 -p DSR -e 48 -c 2 -a 0 -i 2 -k RTR 
- -t 1.043902429 -s 8 -d -1 -p DSR -e 48 -c 2 -a 0 -i 2 -k RTR
h -t 1.043902429 -s 8 -d -1 -p DSR -e 48 -c 2 -a 0 -i 2 -k RTR
+ -t 1.044397429 -s 8 -d -1 -p DSR -e 106 -c 2 -a 0 -i 2 -k MAC 
- -t 1.044397429 -s 8 -d -1 -p DSR -e 106 -c 2 -a 0 -i 2 -k MAC
h -t 1.044397429 -s 8 -d -1 -p DSR -e 106 -c 2 -a 0 -i 2 -k MAC
+ -t 1.044630068 -s 21 -d -1 -p DSR -e 48 -c 2 -a 0 -i 2 -k RTR 
- -t 1.044630068 -s 21 -d -1 -p DSR -e 48 -c 2 -a 0 -i 2 -k RTR
h -t 1.044630068 -s 21 -d -1 -p DSR -e 48 -c 2 -a 0 -i 2 -k RTR
r -t 1.045245767 -s 2 -d -1 -p DSR -e 48 -c 2 -a 0 -i 2 -k MAC
r -t 1.045245934 -s 27 -d -1 -p DSR -e 48 -c 2 -a 0 -i 2 -k MAC
r -t 1.045246161 -s 16 -d -1 -p DSR -e 48 -c 2 -a 0 -i 2 -k MAC
r -t 1.045246222 -s 0 -d -1 -p DSR -e 48 -c 2 -a 0 -i 2 -k MAC
+ -t 1.045840528 -s 21 -d -1 -p DSR -e 106 -c 2 -a 0 -i 2 -k MAC 
- -t 1.045840528 -s 21 -d -1 -p DSR -e 106 -c 2 -a 0 -i 2 -k MAC
h -t 1.045840528 -s 21 -d -1 -p DSR -e 106 -c 2 -a 0 -i 2 -k MAC
+ -t 1.046583350 -s 27 -d -1 -p DSR -e 48 -c 2 -a 0 -i 2 -k RTR 
- -t 1.046583350 -s 27 -d -1 -p DSR -e 48 -c 2 -a 0 -i 2 -k RTR
h -t 1.046583350 -s 27 -d -1 -p DSR -e 48 -c 2 -a 0 -i 2 -k RTR
r -t 1.046688845 -s 0 -d -1 -p DSR -e 48 -c 2 -a 0 -i 2 -k MAC
r -t 1.046689227 -s 9 -d -1 -p DSR -e 48 -c 2 -a 0 -i 2 -k MAC
+ -t 1.047563488 -s 27 -d -1 -p DSR -e 106 -c 2 -a 0 -i 2 -k MAC 
- -t 1.047563488 -s 27 -d -1 -p DSR -e 106 -c 2 -a 0 -i 2 -k MAC
h -t 1.047563488 -s 27 -d -1 -p DSR -e 106 -c 2 -a 0 -i 2 -k MAC
+ -t 1.047879465 -s 9 -d -1 -p DSR -e 48 -c 2 -a 0 -i 2 -k RTR 
- -t 1.047879465 -s 9 -d -1 -p DSR -e 48 -c 2 -a 0 -i 2 -k RTR
h -t 1.047879465 -s 9 -d -1 -p DSR -e 48 -c 2 -a 0 -i 2 -k RTR
r -t 1.048411728 -s 2 -d -1 -p DSR -e 48 -c 2 -a 0 -i 2 -k MAC
r -t 1.048411994 -s 8 -d -1 -p DSR -e 48 -c 2 -a 0 -i 2 -k MAC
r -t 1.048412102 -s 9 -d -1 -p DSR -e 48 -c 2 -a 0 -i 2 -k MAC
r -t 1.048412179 -s 12 -d -1 -p DSR -e 48 -c 2 -a 0 -i 2 -k MAC
r -t 1.048412237 -s 0 -d -1 -p DSR -e 48 -c 2 -a 0 -i 2 -k MAC
+ -t 1.048468187 -s 12 -d -1 -p DSR -e 68 -c 2 -a 0 -i 2 -k RTR 
- -t 1.048468187 -s 12 -d -1 -p DSR -e 68 -c 2 -a 0 -i 2 -k RTR
h -t 1.048468187 -s 12 -d -1 -p DSR -e 68 -c 2 -a 0 -i 2 -k RTR
+ -t 1.048723187 -s 12 -d -1 -p DSR -e 126 -c 2 -a 0 -i 2 -k MAC 
- -t 1.048723187 -s 12 -d -1 -p DSR -e 126 -c 2 -a 0 -i 2 -k MAC
h -t 1.048723187 -s 12 -d -1 -p DSR -e 126 -c 2 -a 0 -i 2 -k MAC
+ -t 1.049618653 -s 2 -d -1 -p DSR -e 68 -c 2 -a 0 -i 2 -k RTR 
- -t 1.049618653 -s 2 -d -1 -p DSR -e 68 -c 2 -a 0 -i 2 -k RTR
h -t 1.049618653 -s 2 -d -1 -p DSR -e 68 -c 2 -a 0 -i 2 -k RTR
r -t 1.049731540 -s 24 -d -1 -p DSR -e 68 -c 2 -a 0 -i 2 -k MAC
r -t 1.049731687 -s 15 -d -1 -p DSR -e 68 -c 2 -a 0 -i 2 -k MAC
r -t 1.049731818 -s 9 -d -1 -p DSR -e 68 -c 2 -a 0 -i 2 -k MAC
r -t 1.049731878 -s 27 -d -1 -p DSR -e 68 -c 2 -a 0 -i 2 -k MAC
r -t 1.049731918 -s 22 -d -1 -p DSR -e 68 -c 2 -a 0 -i 2 -k MAC
r -t 1.049731968 -s 26 -d -1 -p DSR -e 68 -c 2 -a 0 -i 2 -k MAC
r -t 1.049732018 -s 28 -d -1 -p DSR -e 68 -c 2 -a 0 -i 2 -k MAC
+ -t 1.049941818 -s 9 -d -1 -p DSR -e 106 -c 2 -a 0 -i 2 -k MAC 
- -t 1.049941818 -s 9 -d -1 -p DSR -e 106 -c 2 -a 0 -i 2 -k MAC
h -t 1.049941818 -s 9 -d -1 -p DSR -e 106 -c 2 -a 0 -i 2 -k MAC
r -t 1.050790278 -s 26 -d -1 -p DSR -e 48 -c 2 -a 0 -i 2 -k MAC
r -t 1.050790431 -s 27 -d -1 -p DSR -e 48 -c 2 -a 0 -i 2 -k MAC
r -t 1.050790448 -s 12 -d -1 -p DSR -e 48 -c 2 -a 0 -i 2 -k MAC
r -t 1.050790477 -s 15 -d -1 -p DSR -e 48 -c 2 -a 0 -i 2 -k MAC
r -t 1.050790517 -s 21 -d -1 -p DSR -e 48 -c 2 -a 0 -i 2 -k MAC
r -t 1.050790535 -s 0 -d -1 -p DSR -e 48 -c 2 -a 0 -i 2 -k MAC
r -t 1.050790541 -s 28 -d -1 -p DSR -e 48 -c 2 -a 0 -i 2 -k MAC
+ -t 1.051168518 -s 28 -d -1 -p DSR -e 92 -c 2 -a 0 -i 2 -k RTR 
- -t 1.051168518 -s 28 -d -1 -p DSR -e 92 -c 2 -a 0 -i 2 -k RTR
h -t 1.051168518 -s 28 -d -1 -p DSR -e 92 -c 2 -a 0 -i 2 -k RTR
+ -t 1.051604669 -s 2 -d -1 -p DSR -e 126 -c 2 -a 0 -i 2 -k MAC 
- -t 1.051604669 -s 2 -d -1 -p DSR -e 126 -c 2 -a 0 -i 2 -k MAC
h -t 1.051604669 -s 2 -d -1 -p DSR -e 126 -c 2 -a 0 -i 2 -k MAC
+ -t 1.052094926 -s 26 -d -1 -p DSR -e 92 -c 2 -a 0 -i 2 -k RTR 
- -t 1.052094926 -s 26 -d -1 -p DSR -e 92 -c 2 -a 0 -i 2 -k RTR
h -t 1.052094926 -s 26 -d -1 -p DSR -e 92 -c 2 -a 0 -i 2 -k RTR
r -t 1.052612908 -s 27 -d -1 -p DSR -e 68 -c 2 -a 0 -i 2 -k MAC
r -t 1.052613007 -s 8 -d -1 -p DSR -e 68 -c 2 -a 0 -i 2 -k MAC
+ -t 1.053048170 -s 28 -d -1 -p DSR -e 150 -c 2 -a 0 -i 2 -k MAC 
- -t 1.053048170 -s 28 -d -1 -p DSR -e 150 -c 2 -a 0 -i 2 -k MAC
h -t 1.053048170 -s 28 -d -1 -p DSR -e 150 -c 2 -a 0 -i 2 -k MAC
+ -t 1.053368884 -s 16 -d -1 -p DSR -e 48 -c 2 -a 0 -i 2 -k RTR 
- -t 1.053368884 -s 16 -d -1 -p DSR -e 48 -c 2 -a 0 -i 2 -k RTR
h -t 1.053368884 -s 16 -d -1 -p DSR -e 48 -c 2 -a 0 -i 2 -k RTR
+ -t 1.053703884 -s 16 -d -1 -p DSR -e 106 -c 2 -a 0 -i 2 -k MAC 
- -t 1.053703884 -s 16 -d -1 -p DSR -e 106 -c 2 -a 0 -i 2 -k MAC
h -t 1.053703884 -s 16 -d -1 -p DSR -e 106 -c 2 -a 0 -i 2 -k MAC
r -t 1.054248329 -s 7 -d -1 -p DSR -e 92 -c 2 -a 0 -i 2 -k MAC
r -t 1.054248471 -s 26 -d -1 -p DSR -e 92 -c 2 -a 0 -i 2 -k MAC
r -t 1.054248531 -s 15 -d -1 -p DSR -e 92 -c 2 -a 0 -i 2 -k MAC
r -t 1.054248677 -s 18 -d -1 -p DSR -e 92 -c 2 -a 0 -i 2 -k MAC
r -t 1.054248821 -s 13 -d -1 -p DSR -e 92 -c 2 -a 0 -i 2 -k MAC
r -t 1.054248825 -s 3 -d -1 -p DSR -e 92 -c 2 -a 0 -i 2 -k MAC
r -t 1.054248865 -s 24 -d -1 -p DSR -e 92 -c 2 -a 0 -i 2 -k MAC
r -t 1.054248893 -s 9 -d -1 -p DSR -e 92 -c 2 -a 0 -i 2 -k MAC
r -t 1.054249000 -s 12 -d -1 -p DSR -e 92 -c 2 -a 0 -i 2 -k MAC
+ -t 1.054440466 -s 13 -d -1 -p DSR -e 120 -c 2 -a 0 -i 2 -k RTR 
- -t 1.054440466 -s 13 -d -1 -p DSR -e 120 -c 2 -a 0 -i 2 -k RTR
h -t 1.054440466 -s 13 -d -1 -p DSR -e 120 -c 2 -a 0 -i 2 -k RTR
d -t 1.054552567 -s 0 -d -1 -p DSR -e 106 -c 2 -a 0 -i 2 -k MAC
d -t 1.054552616 -s 8 -d -1 -p DSR -e 106 -c 2 -a 0 -i 2 -k MAC
+ -t 1.054675466 -s 13 -d -1 -p DSR -e 178 -c 2 -a 0 -i 2 -k MAC 
- -t 1.054675466 -s 13 -d -1 -p DSR -e 178 -c 2 -a 0 -i 2 -k MAC
h -t 1.054675466 -s 13 -d -1 -p DSR -e 178 -c 2 -a 0 -i 2 -k MAC
+ -t 1.055078529 -s 24 -d -1 -p DSR -e 92 -c 2 -a 0 -i 2 -k RTR 
- -t 1.055078529 -s 24 -d -1 -p DSR -e 92 -c 2 -a 0 -i 2 -k RTR
h -t 1.055078529 -s 24 -d -1 -p DSR -e 92 -c 2 -a 0 -i 2 -k RTR
+ -t 1.055312311 -s 15 -d -1 -p DSR -e 92 -c 2 -a 0 -i 2 -k RTR 
- -t 1.055312311 -s 15 -d -1 -p DSR -e 92 -c 2 -a 0 -i 2 -k RTR
h -t 1.055312311 -s 15 -d -1 -p DSR -e 92 -c 2 -a 0 -i 2 -k RTR
r -t 1.056099610 -s 18 -d -1 -p DSR -e 120 -c 2 -a 0 -i 2 -k MAC
r -t 1.056099792 -s 17 -d -1 -p DSR -e 120 -c 2 -a 0 -i 2 -k MAC
r -t 1.056099821 -s 10 -d -1 -p DSR -e 120 -c 2 -a 0 -i 2 -k MAC
r -t 1.056099967 -s 7 -d -1 -p DSR -e 120 -c 2 -a 0 -i 2 -k MAC
r -t 1.056100051 -s 3 -d -1 -p DSR -e 120 -c 2 -a 0 -i 2 -k MAC
r -t 1.056100117 -s 28 -d -1 -p DSR -e 120 -c 2 -a 0 -i 2 -k MAC
r -t 1.056100131 -s 15 -d -1 -p DSR -e 120 -c 2 -a 0 -i 2 -k MAC
r -t 1.056100180 -s 11 -d -1 -p DSR -e 120 -c 2 -a 0 -i 2 -k MAC
r -t 1.056100234 -s 24 -d -1 -p DSR -e 120 -c 2 -a 0 -i 2 -k MAC
r -t 1.056100234 -s 19 -d -1 -p DSR -e 120 -c 2 -a 0 -i 2 -k MAC
+ -t 1.056370131 -s 15 -d -1 -p DSR -e 150 -c 2 -a 0 -i 2 -k MAC 
- -t 1.056370131 -s 15 -d -1 -p DSR -e 150 -c 2 -a 0 -i 2 -k MAC
h -t 1.056370131 -s 15 -d -1 -p DSR -e 150 -c 2 -a 0 -i 2 -k MAC
+ -t 1.056460557 -s 22 -d -1 -p DSR -e 92 -c 2 -a 0 -i 2 -k RTR 
- -t 1.056460557 -s 22 -d -1 -p DSR -e 92 -c 2 -a 0 -i 2 -k RTR
h -t 1.056460557 -s 22 -d -1 -p DSR -e 92 -c 2 -a 0 -i 2 -k RTR
+ -t 1.056937794 -s 18 -d -1 -p DSR -e 120 -c 2 -a 0 -i 2 -k RTR 
- -t 1.056937794 -s 18 -d -1 -p DSR -e 120 -c 2 -a 0 -i 2 -k RTR
h -t 1.056937794 -s 18 -d -1 -p DSR -e 120 -c 2 -a 0 -i 2 -k RTR
+ -t 1.057256622 -s 7 -d -1 -p DSR -e 120 -c 2 -a 0 -i 2 -k RTR 
- -t 1.057256622 -s 7 -d -1 -p DSR -e 120 -c 2 -a 0 -i 2 -k RTR
h -t 1.057256622 -s 7 -d -1 -p DSR -e 120 -c 2 -a 0 -i 2 -k RTR
r -t 1.057570470 -s 24 -d -1 -p DSR -e 92 -c 2 -a 0 -i 2 -k MAC
r -t 1.057570492 -s 28 -d -1 -p DSR -e 92 -c 2 -a 0 -i 2 -k MAC
r -t 1.057570534 -s 7 -d -1 -p DSR -e 92 -c 2 -a 0 -i 2 -k MAC
r -t 1.057570593 -s 26 -d -1 -p DSR -e 92 -c 2 -a 0 -i 2 -k MAC
r -t 1.057570631 -s 12 -d -1 -p DSR -e 92 -c 2 -a 0 -i 2 -k MAC
r -t 1.057570672 -s 18 -d -1 -p DSR -e 92 -c 2 -a 0 -i 2 -k MAC
r -t 1.057570790 -s 9 -d -1 -p DSR -e 92 -c 2 -a 0 -i 2 -k MAC
r -t 1.057570796 -s 13 -d -1 -p DSR -e 92 -c 2 -a 0 -i 2 -k MAC
r -t 1.057570951 -s 19 -d -1 -p DSR -e 92 -c 2 -a 0 -i 2 -k MAC
+ -t 1.057900534 -s 7 -d -1 -p DSR -e 178 -c 2 -a 0 -i 2 -k MAC 
- -t 1.057900534 -s 7 -d -1 -p DSR -e 178 -c 2 -a 0 -i 2 -k MAC
h -t 1.057900534 -s 7 -d -1 -p DSR -e 178 -c 2 -a 0 -i 2 -k MAC
+ -t 1.059066440 -s 11 -d -1 -p DSR -e 152 -c 2 -a 0 -i 2 -k RTR 
- -t 1.059066440 -s 11 -d -1 -p DSR -e 152 -c 2 -a 0 -i 2 -k RTR
h -t 1.059066440 -s 11 -d -1 -p DSR -e 152 -c 2 -a 0 -i 2 -k RTR
r -t 1.059324693 -s 28 -d -1 -p DSR -e 120 -c 2 -a 0 -i 2 -k MAC
r -t 1.059324893 -s 18 -d -1 -p DSR -e 120 -c 2 -a 0 -i 2 -k MAC
r -t 1.059324937 -s 15 -d -1 -p DSR -e 120 -c 2 -a 0 -i 2 -k MAC
r -t 1.059324995 -s 26 -d -1 -p DSR -e 120 -c 2 -a 0 -i 2 -k MAC
r -t 1.059325035 -s 13 -d -1 -p DSR -e 120 -c 2 -a 0 -i 2 -k MAC
r -t 1.059325068 -s 3 -d -1 -p DSR -e 120 -c 2 -a 0 -i 2 -k MAC
r -t 1.059325238 -s 24 -d -1 -p DSR -e 120 -c 2 -a 0 -i 2 -k MAC
r -t 1.059325322 -s 17 -d -1 -p DSR -e 120 -c 2 -a 0 -i 2 -k MAC
r -t 1.059325363 -s 10 -d -1 -p DSR -e 120 -c 2 -a 0 -i 2 -k MAC
+ -t 1.059435238 -s 24 -d -1 -p DSR -e 150 -c 2 -a 0 -i 2 -k MAC 
- -t 1.059435238 -s 24 -d -1 -p DSR -e 150 -c 2 -a 0 -i 2 -k MAC
h -t 1.059435238 -s 24 -d -1 -p DSR -e 150 -c 2 -a 0 -i 2 -k MAC
r -t 1.060635577 -s 15 -d -1 -p DSR -e 92 -c 2 -a 0 -i 2 -k MAC
r -t 1.060635590 -s 12 -d -1 -p DSR -e 92 -c 2 -a 0 -i 2 -k MAC
r -t 1.060635803 -s 19 -d -1 -p DSR -e 92 -c 2 -a 0 -i 2 -k MAC
r -t 1.060635929 -s 18 -d -1 -p DSR -e 92 -c 2 -a 0 -i 2 -k MAC
r -t 1.060635932 -s 28 -d -1 -p DSR -e 92 -c 2 -a 0 -i 2 -k MAC
r -t 1.060635941 -s 7 -d -1 -p DSR -e 92 -c 2 -a 0 -i 2 -k MAC
r -t 1.060636005 -s 13 -d -1 -p DSR -e 92 -c 2 -a 0 -i 2 -k MAC
r -t 1.060636018 -s 26 -d -1 -p DSR -e 92 -c 2 -a 0 -i 2 -k MAC
r -t 1.060636061 -s 22 -d -1 -p DSR -e 92 -c 2 -a 0 -i 2 -k MAC
r -t 1.060636068 -s 10 -d -1 -p DSR -e 92 -c 2 -a 0 -i 2 -k MAC
+ -t 1.060725929 -s 18 -d -1 -p DSR -e 178 -c 2 -a 0 -i 2 -k MAC 
- -t 1.060725929 -s 18 -d -1 -p DSR -e 178 -c 2 -a 0 -i 2 -k MAC
h -t 1.060725929 -s 18 -d -1 -p DSR -e 178 -c 2 -a 0 -i 2 -k MAC
+ -t 1.061868633 -s 17 -d -1 -p DSR -e 152 -c 2 -a 0 -i 2 -k RTR 
- -t 1.061868633 -s 17 -d -1 -p DSR -e 152 -c 2 -a 0 -i 2 -k RTR
h -t 1.061868633 -s 17 -d -1 -p DSR -e 152 -c 2 -a 0 -i 2 -k RTR
r -t 1.062150074 -s 13 -d -1 -p DSR -e 120 -c 2 -a 0 -i 2 -k MAC
r -t 1.062150289 -s 7 -d -1 -p DSR -e 120 -c 2 -a 0 -i 2 -k MAC
r -t 1.062150389 -s 17 -d -1 -p DSR -e 120 -c 2 -a 0 -i 2 -k MAC
r -t 1.062150405 -s 10 -d -1 -p DSR -e 120 -c 2 -a 0 -i 2 -k MAC
r -t 1.062150436 -s 28 -d -1 -p DSR -e 120 -c 2 -a 0 -i 2 -k MAC
r -t 1.062150470 -s 15 -d -1 -p DSR -e 120 -c 2 -a 0 -i 2 -k MAC
r -t 1.062150477 -s 3 -d -1 -p DSR -e 120 -c 2 -a 0 -i 2 -k MAC
r -t 1.062150621 -s 24 -d -1 -p DSR -e 120 -c 2 -a 0 -i 2 -k MAC
r -t 1.062150728 -s 19 -d -1 -p DSR -e 120 -c 2 -a 0 -i 2 -k MAC
r -t 1.062150729 -s 26 -d -1 -p DSR -e 120 -c 2 -a 0 -i 2 -k MAC
r -t 1.062150752 -s 11 -d -1 -p DSR -e 120 -c 2 -a 0 -i 2 -k MAC
+ -t 1.062260389 -s 17 -d -1 -p DSR -e 210 -c 2 -a 0 -i 2 -k MAC 
- -t 1.062260389 -s 17 -d -1 -p DSR -e 210 -c 2 -a 0 -i 2 -k MAC
h -t 1.062260389 -s 17 -d -1 -p DSR -e 210 -c 2 -a 0 -i 2 -k MAC
+ -t 1.062276886 -s 19 -d -1 -p DSR -e 152 -c 2 -a 0 -i 2 -k RTR 
- -t 1.062276886 -s 19 -d -1 -p DSR -e 152 -c 2 -a 0 -i 2 -k RTR
h -t 1.062276886 -s 19 -d -1 -p DSR -e 152 -c 2 -a 0 -i 2 -k RTR
+ -t 1.063018767 -s 3 -d -1 -p DSR -e 120 -c 2 -a 0 -i 2 -k RTR 
- -t 1.063018767 -s 3 -d -1 -p DSR -e 120 -c 2 -a 0 -i 2 -k RTR
h -t 1.063018767 -s 3 -d -1 -p DSR -e 120 -c 2 -a 0 -i 2 -k RTR
r -t 1.063940714 -s 13 -d -1 -p DSR -e 152 -c 2 -a 0 -i 2 -k MAC
r -t 1.063940756 -s 10 -d -1 -p DSR -e 152 -c 2 -a 0 -i 2 -k MAC
r -t 1.063940848 -s 18 -d -1 -p DSR -e 152 -c 2 -a 0 -i 2 -k MAC
r -t 1.063941036 -s 3 -d -1 -p DSR -e 152 -c 2 -a 0 -i 2 -k MAC
r -t 1.063941072 -s 11 -d -1 -p DSR -e 152 -c 2 -a 0 -i 2 -k MAC
r -t 1.063941102 -s 4 -d -1 -p DSR -e 152 -c 2 -a 0 -i 2 -k MAC
r -t 1.063941176 -s 7 -d -1 -p DSR -e 152 -c 2 -a 0 -i 2 -k MAC
r -t 1.063941194 -s 20 -d -1 -p DSR -e 152 -c 2 -a 0 -i 2 -k MAC
+ -t 1.064071072 -s 11 -d -1 -p DSR -e 210 -c 2 -a 0 -i 2 -k MAC 
- -t 1.064071072 -s 11 -d -1 -p DSR -e 210 -c 2 -a 0 -i 2 -k MAC
h -t 1.064071072 -s 11 -d -1 -p DSR -e 210 -c 2 -a 0 -i 2 -k MAC
+ -t 1.065615537 -s 10 -d -1 -p DSR -e 152 -c 2 -a 0 -i 2 -k RTR 
- -t 1.065615537 -s 10 -d -1 -p DSR -e 152 -c 2 -a 0 -i 2 -k RTR
h -t 1.065615537 -s 10 -d -1 -p DSR -e 152 -c 2 -a 0 -i 2 -k RTR
r -t 1.065751411 -s 6 -d -1 -p DSR -e 152 -c 2 -a 0 -i 2 -k MAC
r -t 1.065751435 -s 10 -d -1 -p DSR -e 152 -c 2 -a 0 -i 2 -k MAC
r -t 1.065751558 -s 19 -d -1 -p DSR -e 152 -c 2 -a 0 -i 2 -k MAC
r -t 1.065751755 -s 17 -d -1 -p DSR -e 152 -c 2 -a 0 -i 2 -k MAC
r -t 1.065751786 -s 13 -d -1 -p DSR -e 152 -c 2 -a 0 -i 2 -k MAC
r -t 1.065751831 -s 29 -d -1 -p DSR -e 152 -c 2 -a 0 -i 2 -k MAC
r -t 1.065751894 -s 18 -d -1 -p DSR -e 152 -c 2 -a 0 -i 2 -k MAC
+ -t 1.066246428 -s 22 -d -1 -p DSR -e 150 -c 2 -a 0 -i 2 -k MAC 
- -t 1.066246428 -s 22 -d -1 -p DSR -e 150 -c 2 -a 0 -i 2 -k MAC
h -t 1.066246428 -s 22 -d -1 -p DSR -e 150 -c 2 -a 0 -i 2 -k MAC
+ -t 1.066286345 -s 3 -d -1 -p DSR -e 178 -c 2 -a 0 -i 2 -k MAC 
- -t 1.066286345 -s 3 -d -1 -p DSR -e 178 -c 2 -a 0 -i 2 -k MAC
h -t 1.066286345 -s 3 -d -1 -p DSR -e 178 -c 2 -a 0 -i 2 -k MAC
d -t 1.066287529 -s 24 -d -1 -p DSR -e 150 -c 2 -a 0 -i 2 -k MAC
r -t 1.067447114 -s 23 -d -1 -p DSR -e 92 -c 2 -a 0 -i 2 -k MAC
r -t 1.067447159 -s 12 -d -1 -p DSR -e 92 -c 2 -a 0 -i 2 -k MAC
r -t 1.067710775 -s 4 -d -1 -p DSR -e 120 -c 2 -a 0 -i 2 -k MAC
d -t 1.067710879 -s 7 -d -1 -p DSR -e 178 -c 2 -a 0 -i 2 -k MAC
d -t 1.067710892 -s 18 -d -1 -p DSR -e 178 -c 2 -a 0 -i 2 -k MAC
d -t 1.067710930 -s 13 -d -1 -p DSR -e 178 -c 2 -a 0 -i 2 -k MAC
d -t 1.067710993 -s 17 -d -1 -p DSR -e 178 -c 2 -a 0 -i 2 -k MAC
d -t 1.067711000 -s 28 -d -1 -p DSR -e 178 -c 2 -a 0 -i 2 -k MAC
+ -t 1.068165257 -s 26 -d -1 -p DSR -e 150 -c 2 -a 0 -i 2 -k MAC 
- -t 1.068165257 -s 26 -d -1 -p DSR -e 150 -c 2 -a 0 -i 2 -k MAC
h -t 1.068165257 -s 26 -d -1 -p DSR -e 150 -c 2 -a 0 -i 2 -k MAC
r -t 1.069365559 -s 28 -d -1 -p DSR -e 92 -c 2 -a 0 -i 2 -k MAC
r -t 1.069365718 -s 9 -d -1 -p DSR -e 92 -c 2 -a 0 -i 2 -k MAC
r -t 1.069365718 -s 7 -d -1 -p DSR -e 92 -c 2 -a 0 -i 2 -k MAC
r -t 1.069365719 -s 15 -d -1 -p DSR -e 92 -c 2 -a 0 -i 2 -k MAC
r -t 1.069366037 -s 24 -d -1 -p DSR -e 92 -c 2 -a 0 -i 2 -k MAC
r -t 1.069366038 -s 12 -d -1 -p DSR -e 92 -c 2 -a 0 -i 2 -k MAC
r -t 1.069366057 -s 18 -d -1 -p DSR -e 92 -c 2 -a 0 -i 2 -k MAC
+ -t 1.069505215 -s 4 -d -1 -p DSR -e 188 -c 2 -a 0 -i 2 -k RTR 
- -t 1.069505215 -s 4 -d -1 -p DSR -e 188 -c 2 -a 0 -i 2 -k RTR
h -t 1.069505215 -s 4 -d -1 -p DSR -e 188 -c 2 -a 0 -i 2 -k RTR
+ -t 1.069620245 -s 6 -d -1 -p DSR -e 188 -c 2 -a 0 -i 2 -k RTR 
- -t 1.069620245 -s 6 -d -1 -p DSR -e 188 -c 2 -a 0 -i 2 -k RTR
h -t 1.069620245 -s 6 -d -1 -p DSR -e 188 -c 2 -a 0 -i 2 -k RTR
+ -t 1.069800496 -s 10 -d -1 -p DSR -e 210 -c 2 -a 0 -i 2 -k MAC 
- -t 1.069800496 -s 10 -d -1 -p DSR -e 210 -c 2 -a 0 -i 2 -k MAC
h -t 1.069800496 -s 10 -d -1 -p DSR -e 210 -c 2 -a 0 -i 2 -k MAC
+ -t 1.069800538 -s 19 -d -1 -p DSR -e 210 -c 2 -a 0 -i 2 -k MAC 
- -t 1.069800538 -s 19 -d -1 -p DSR -e 210 -c 2 -a 0 -i 2 -k MAC
h -t 1.069800538 -s 19 -d -1 -p DSR -e 210 -c 2 -a 0 -i 2 -k MAC
d -t 1.069801024 -s 11 -d -1 -p DSR -e 210 -c 2 -a 0 -i 2 -k MAC
d -t 1.069801198 -s 6 -d -1 -p DSR -e 210 -c 2 -a 0 -i 2 -k MAC
d -t 1.069801326 -s 24 -d -1 -p DSR -e 210 -c 2 -a 0 -i 2 -k MAC
d -t 1.069801336 -s 18 -d -1 -p DSR -e 210 -c 2 -a 0 -i 2 -k MAC
d -t 1.069801365 -s 15 -d -1 -p DSR -e 210 -c 2 -a 0 -i 2 -k MAC
d -t 1.069801567 -s 7 -d -1 -p DSR -e 210 -c 2 -a 0 -i 2 -k MAC
r -t 1.071480851 -s 13 -d -1 -p DSR -e 152 -c 2 -a 0 -i 2 -k MAC
r -t 1.071480864 -s 17 -d -1 -p DSR -e 152 -c 2 -a 0 -i 2 -k MAC
d -t 1.071481024 -s 11 -d -1 -p DSR -e 210 -c 2 -a 0 -i 2 -k MAC
r -t 1.071481107 -s 23 -d -1 -p DSR -e 152 -c 2 -a 0 -i 2 -k MAC
d -t 1.071481198 -s 6 -d -1 -p DSR -e 210 -c 2 -a 0 -i 2 -k MAC
d -t 1.071481326 -s 24 -d -1 -p DSR -e 210 -c 2 -a 0 -i 2 -k MAC
d -t 1.071481336 -s 18 -d -1 -p DSR -e 210 -c 2 -a 0 -i 2 -k MAC
+ -t 1.072015198 -s 6 -d -1 -p DSR -e 246 -c 2 -a 0 -i 2 -k MAC 
- -t 1.072015198 -s 6 -d -1 -p DSR -e 246 -c 2 -a 0 -i 2 -k MAC
h -t 1.072015198 -s 6 -d -1 -p DSR -e 246 -c 2 -a 0 -i 2 -k MAC
+ -t 1.072545623 -s 20 -d -1 -p DSR -e 188 -c 2 -a 0 -i 2 -k RTR 
- -t 1.072545623 -s 20 -d -1 -p DSR -e 188 -c 2 -a 0 -i 2 -k RTR
h -t 1.072545623 -s 20 -d -1 -p DSR -e 188 -c 2 -a 0 -i 2 -k RTR
+ -t 1.072763434 -s 29 -d 11 -p DSR -e 84 -c 2 -a 0 -i 3 -k RTR 
- -t 1.072763434 -s 29 -d 11 -p DSR -e 84 -c 2 -a 0 -i 3 -k RTR
h -t 1.072763434 -s 29 -d 11 -p DSR -e 84 -c 2 -a 0 -i 3 -k RTR
r -t 1.073983538 -s 11 -d -1 -p DSR -e 188 -c 2 -a 0 -i 2 -k MAC
r -t 1.073983619 -s 29 -d -1 -p DSR -e 188 -c 2 -a 0 -i 2 -k MAC
r -t 1.073983829 -s 19 -d -1 -p DSR -e 188 -c 2 -a 0 -i 2 -k MAC
r -t 1.073983852 -s 25 -d -1 -p DSR -e 188 -c 2 -a 0 -i 2 -k MAC
r -t 1.073983901 -s 10 -d -1 -p DSR -e 188 -c 2 -a 0 -i 2 -k MAC
r -t 1.073983963 -s 23 -d -1 -p DSR -e 188 -c 2 -a 0 -i 2 -k MAC
+ -t 1.074353619 -s 29 -d -1 -p ARP -e 86 -c 2 -a 0 -i 0 -k MAC 
- -t 1.074353619 -s 29 -d -1 -p ARP -e 86 -c 2 -a 0 -i 0 -k MAC
h -t 1.074353619 -s 29 -d -1 -p ARP -e 86 -c 2 -a 0 -i 0 -k MAC
+ -t 1.074478785 -s 20 -d -1 -p DSR -e 246 -c 2 -a 0 -i 2 -k MAC 
- -t 1.074478785 -s 20 -d -1 -p DSR -e 246 -c 2 -a 0 -i 2 -k MAC
h -t 1.074478785 -s 20 -d -1 -p DSR -e 246 -c 2 -a 0 -i 2 -k MAC
d -t 1.074480130 -s 11 -d -1 -p ARP -e 86 -c 2 -a 0 -i 0 -k MAC
+ -t 1.074661636 -s 25 -d -1 -p DSR -e 228 -c 2 -a 0 -i 2 -k RTR 
- -t 1.074661636 -s 25 -d -1 -p DSR -e 228 -c 2 -a 0 -i 2 -k RTR
h -t 1.074661636 -s 25 -d -1 -p DSR -e 228 -c 2 -a 0 -i 2 -k RTR
r -t 1.075042039 -s 6 -d -1 -p ARP -e 28 -c 2 -a 0 -i 0 -k MAC
r -t 1.075042089 -s 25 -d -1 -p ARP -e 28 -c 2 -a 0 -i 0 -k MAC
+ -t 1.075132089 -s 25 -d -1 -p DSR -e 286 -c 2 -a 0 -i 2 -k MAC 
- -t 1.075132089 -s 25 -d -1 -p DSR -e 286 -c 2 -a 0 -i 2 -k MAC
h -t 1.075132089 -s 25 -d -1 -p DSR -e 286 -c 2 -a 0 -i 2 -k MAC
+ -t 1.076246220 -s 23 -d -1 -p DSR -e 120 -c 2 -a 0 -i 2 -k RTR 
- -t 1.076246220 -s 23 -d -1 -p DSR -e 120 -c 2 -a 0 -i 2 -k RTR
h -t 1.076246220 -s 23 -d -1 -p DSR -e 120 -c 2 -a 0 -i 2 -k RTR
r -t 1.076447412 -s 4 -d -1 -p DSR -e 188 -c 2 -a 0 -i 2 -k MAC
d -t 1.076447590 -s 17 -d -1 -p DSR -e 246 -c 2 -a 0 -i 2 -k MAC
+ -t 1.076637412 -s 4 -d -1 -p DSR -e 246 -c 2 -a 0 -i 2 -k MAC 
- -t 1.076637412 -s 4 -d -1 -p DSR -e 246 -c 2 -a 0 -i 2 -k MAC
h -t 1.076637412 -s 4 -d -1 -p DSR -e 246 -c 2 -a 0 -i 2 -k MAC
r -t 1.077420560 -s 29 -d -1 -p DSR -e 228 -c 2 -a 0 -i 2 -k MAC
r -t 1.077420614 -s 23 -d -1 -p DSR -e 228 -c 2 -a 0 -i 2 -k MAC
r -t 1.077420743 -s 6 -d -1 -p DSR -e 228 -c 2 -a 0 -i 2 -k MAC
+ -t 1.077990614 -s 23 -d -1 -p DSR -e 178 -c 2 -a 0 -i 2 -k MAC 
- -t 1.077990614 -s 23 -d -1 -p DSR -e 178 -c 2 -a 0 -i 2 -k MAC
h -t 1.077990614 -s 23 -d -1 -p DSR -e 178 -c 2 -a 0 -i 2 -k MAC
r -t 1.078605842 -s 3 -d -1 -p DSR -e 188 -c 2 -a 0 -i 2 -k MAC
r -t 1.078606038 -s 20 -d -1 -p DSR -e 188 -c 2 -a 0 -i 2 -k MAC
r -t 1.078606125 -s 17 -d -1 -p DSR -e 188 -c 2 -a 0 -i 2 -k MAC
r -t 1.079415138 -s 25 -d -1 -p DSR -e 120 -c 2 -a 0 -i 2 -k MAC
d -t 1.079415183 -s 19 -d -1 -p DSR -e 178 -c 2 -a 0 -i 2 -k MAC
r -t 1.079415299 -s 22 -d -1 -p DSR -e 120 -c 2 -a 0 -i 2 -k MAC
r -t 1.079415378 -s 6 -d -1 -p DSR -e 120 -c 2 -a 0 -i 2 -k MAC
+ -t 1.080787658 -s 29 -d 25 -p DSR -e 100 -c 2 -a 0 -i 6 -k RTR 
- -t 1.080787658 -s 29 -d 25 -p DSR -e 100 -c 2 -a 0 -i 6 -k RTR
h -t 1.080787658 -s 29 -d 25 -p DSR -e 100 -c 2 -a 0 -i 6 -k RTR
+ -t 1.081402658 -s 29 -d -1 -p ARP -e 86 -c 2 -a 0 -i 0 -k MAC 
- -t 1.081402658 -s 29 -d -1 -p ARP -e 86 -c 2 -a 0 -i 0 -k MAC
h -t 1.081402658 -s 29 -d -1 -p ARP -e 86 -c 2 -a 0 -i 0 -k MAC
r -t 1.082091078 -s 6 -d -1 -p ARP -e 28 -c 2 -a 0 -i 0 -k MAC
r -t 1.082091129 -s 25 -d -1 -p ARP -e 28 -c 2 -a 0 -i 0 -k MAC
r -t 1.082091417 -s 11 -d -1 -p ARP -e 28 -c 2 -a 0 -i 0 -k MAC
+ -t 1.082726129 -s 25 -d -1 -p RTS -e 44 -c 2 -a 0 -i 0 -k MAC 
- -t 1.082726129 -s 25 -d -1 -p RTS -e 44 -c 2 -a 0 -i 0 -k MAC
h -t 1.082726129 -s 25 -d -1 -p RTS -e 44 -c 2 -a 0 -i 0 -k MAC
r -t 1.083078600 -s 29 -d -1 -p RTS -e 44 -c 2 -a 0 -i 0 -k MAC
+ -t 1.083088600 -s 29 -d -1 -p CTS -e 38 -c 2 -a 0 -i 0 -k MAC 
- -t 1.083088600 -s 29 -d -1 -p CTS -e 38 -c 2 -a 0 -i 0 -k MAC
h -t 1.083088600 -s 29 -d -1 -p CTS -e 38 -c 2 -a 0 -i 0 -k MAC
r -t 1.083393070 -s 25 -d -1 -p CTS -e 38 -c 2 -a 0 -i 0 -k MAC
+ -t 1.083403070 -s 25 -d -1 -p ARP -e 86 -c 2 -a 0 -i 0 -k MAC 
- -t 1.083403070 -s 25 -d -1 -p ARP -e 86 -c 2 -a 0 -i 0 -k MAC
h -t 1.083403070 -s 25 -d -1 -p ARP -e 86 -c 2 -a 0 -i 0 -k MAC
+ -t 1.083521985 -s 29 -d 6 -p DSR -e 92 -c 2 -a 0 -i 5 -k RTR 
- -t 1.083521985 -s 29 -d 6 -p DSR -e 92 -c 2 -a 0 -i 5 -k RTR
h -t 1.083521985 -s 29 -d 6 -p DSR -e 92 -c 2 -a 0 -i 5 -k RTR
r -t 1.084091541 -s 29 -d -1 -p ARP -e 28 -c 2 -a 0 -i 0 -k MAC
+ -t 1.084101541 -s 29 -d -1 -p ACK -e 38 -c 2 -a 0 -i 0 -k MAC 
- -t 1.084101541 -s 29 -d -1 -p ACK -e 38 -c 2 -a 0 -i 0 -k MAC
h -t 1.084101541 -s 29 -d -1 -p ACK -e 38 -c 2 -a 0 -i 0 -k MAC
r -t 1.084406011 -s 25 -d -1 -p ACK -e 38 -c 2 -a 0 -i 0 -k MAC
+ -t 1.084875541 -s 29 -d -1 -p ARP -e 86 -c 2 -a 0 -i 0 -k MAC 
- -t 1.084875541 -s 29 -d -1 -p ARP -e 86 -c 2 -a 0 -i 0 -k MAC
h -t 1.084875541 -s 29 -d -1 -p ARP -e 86 -c 2 -a 0 -i 0 -k MAC
r -t 1.085563961 -s 6 -d -1 -p ARP -e 28 -c 2 -a 0 -i 0 -k MAC
r -t 1.085564011 -s 25 -d -1 -p ARP -e 28 -c 2 -a 0 -i 0 -k MAC
r -t 1.085564300 -s 11 -d -1 -p ARP -e 28 -c 2 -a 0 -i 0 -k MAC
+ -t 1.085918961 -s 6 -d -1 -p RTS -e 44 -c 2 -a 0 -i 0 -k MAC 
- -t 1.085918961 -s 6 -d -1 -p RTS -e 44 -c 2 -a 0 -i 0 -k MAC
h -t 1.085918961 -s 6 -d -1 -p RTS -e 44 -c 2 -a 0 -i 0 -k MAC
r -t 1.086271381 -s 29 -d -1 -p RTS -e 44 -c 2 -a 0 -i 0 -k MAC
+ -t 1.086281381 -s 29 -d -1 -p CTS -e 38 -c 2 -a 0 -i 0 -k MAC 
- -t 1.086281381 -s 29 -d -1 -p CTS -e 38 -c 2 -a 0 -i 0 -k MAC
h -t 1.086281381 -s 29 -d -1 -p CTS -e 38 -c 2 -a 0 -i 0 -k MAC
r -t 1.086585801 -s 6 -d -1 -p CTS -e 38 -c 2 -a 0 -i 0 -k MAC
+ -t 1.086595801 -s 6 -d -1 -p ARP -e 86 -c 2 -a 0 -i 0 -k MAC 
- -t 1.086595801 -s 6 -d -1 -p ARP -e 86 -c 2 -a 0 -i 0 -k MAC
h -t 1.086595801 -s 6 -d -1 -p ARP -e 86 -c 2 -a 0 -i 0 -k MAC
r -t 1.087284221 -s 29 -d -1 -p ARP -e 28 -c 2 -a 0 -i 0 -k MAC
+ -t 1.087294221 -s 29 -d -1 -p ACK -e 38 -c 2 -a 0 -i 0 -k MAC 
- -t 1.087294221 -s 29 -d -1 -p ACK -e 38 -c 2 -a 0 -i 0 -k MAC
h -t 1.087294221 -s 29 -d -1 -p ACK -e 38 -c 2 -a 0 -i 0 -k MAC
r -t 1.087598641 -s 6 -d -1 -p ACK -e 38 -c 2 -a 0 -i 0 -k MAC
+ -t 1.087828221 -s 29 -d -1 -p RTS -e 44 -c 2 -a 0 -i 0 -k MAC 
- -t 1.087828221 -s 29 -d -1 -p RTS -e 44 -c 2 -a 0 -i 0 -k MAC
h -t 1.087828221 -s 29 -d -1 -p RTS -e 44 -c 2 -a 0 -i 0 -k MAC
r -t 1.088180692 -s 25 -d -1 -p RTS -e 44 -c 2 -a 0 -i 0 -k MAC
+ -t 1.088190692 -s 25 -d -1 -p CTS -e 38 -c 2 -a 0 -i 0 -k MAC 
- -t 1.088190692 -s 25 -d -1 -p CTS -e 38 -c 2 -a 0 -i 0 -k MAC
h -t 1.088190692 -s 25 -d -1 -p CTS -e 38 -c 2 -a 0 -i 0 -k MAC
r -t 1.088495162 -s 29 -d -1 -p CTS -e 38 -c 2 -a 0 -i 0 -k MAC
+ -t 1.088505162 -s 29 -d 25 -p DSR -e 158 -c 2 -a 0 -i 6 -k MAC 
- -t 1.088505162 -s 29 -d 25 -p DSR -e 158 -c 2 -a 0 -i 6 -k MAC
h -t 1.088505162 -s 29 -d 25 -p DSR -e 158 -c 2 -a 0 -i 6 -k MAC
r -t 1.089769633 -s 25 -d 25 -p DSR -e 100 -c 2 -a 0 -i 6 -k MAC
+ -t 1.089779633 -s 25 -d -1 -p ACK -e 38 -c 2 -a 0 -i 0 -k MAC 
- -t 1.089779633 -s 25 -d -1 -p ACK -e 38 -c 2 -a 0 -i 0 -k MAC
h -t 1.089779633 -s 25 -d -1 -p ACK -e 38 -c 2 -a 0 -i 0 -k MAC
+ -t 1.089794633 -s 25 -d 6 -p DSR -e 100 -c 2 -a 0 -i 6 -k RTR 
- -t 1.089794633 -s 25 -d 6 -p DSR -e 100 -c 2 -a 0 -i 6 -k RTR
h -t 1.089794633 -s 25 -d 6 -p DSR -e 100 -c 2 -a 0 -i 6 -k RTR
r -t 1.090084103 -s 29 -d -1 -p ACK -e 38 -c 2 -a 0 -i 0 -k MAC
+ -t 1.090374103 -s 29 -d -1 -p RTS -e 44 -c 2 -a 0 -i 0 -k MAC 
- -t 1.090374103 -s 29 -d -1 -p RTS -e 44 -c 2 -a 0 -i 0 -k MAC
h -t 1.090374103 -s 29 -d -1 -p RTS -e 44 -c 2 -a 0 -i 0 -k MAC
r -t 1.090726524 -s 6 -d -1 -p RTS -e 44 -c 2 -a 0 -i 0 -k MAC
+ -t 1.090736524 -s 6 -d -1 -p CTS -e 38 -c 2 -a 0 -i 0 -k MAC 
- -t 1.090736524 -s 6 -d -1 -p CTS -e 38 -c 2 -a 0 -i 0 -k MAC
h -t 1.090736524 -s 6 -d -1 -p CTS -e 38 -c 2 -a 0 -i 0 -k MAC
r -t 1.091040944 -s 29 -d -1 -p CTS -e 38 -c 2 -a 0 -i 0 -k MAC
+ -t 1.091050944 -s 29 -d 6 -p DSR -e 150 -c 2 -a 0 -i 5 -k MAC 
- -t 1.091050944 -s 29 -d 6 -p DSR -e 150 -c 2 -a 0 -i 5 -k MAC
h -t 1.091050944 -s 29 -d 6 -p DSR -e 150 -c 2 -a 0 -i 5 -k MAC
r -t 1.092251364 -s 6 -d 6 -p DSR -e 92 -c 2 -a 0 -i 5 -k MAC
+ -t 1.092261364 -s 6 -d -1 -p ACK -e 38 -c 2 -a 0 -i 0 -k MAC 
- -t 1.092261364 -s 6 -d -1 -p ACK -e 38 -c 2 -a 0 -i 0 -k MAC
h -t 1.092261364 -s 6 -d -1 -p ACK -e 38 -c 2 -a 0 -i 0 -k MAC
+ -t 1.092276364 -s 6 -d 11 -p DSR -e 92 -c 2 -a 0 -i 5 -k RTR 
- -t 1.092276364 -s 6 -d 11 -p DSR -e 92 -c 2 -a 0 -i 5 -k RTR
h -t 1.092276364 -s 6 -d 11 -p DSR -e 92 -c 2 -a 0 -i 5 -k RTR
r -t 1.092565784 -s 29 -d -1 -p ACK -e 38 -c 2 -a 0 -i 0 -k MAC
+ -t 1.092656017 -s 25 -d -1 -p ARP -e 86 -c 2 -a 0 -i 0 -k MAC 
- -t 1.092656017 -s 25 -d -1 -p ARP -e 86 -c 2 -a 0 -i 0 -k MAC
h -t 1.092656017 -s 25 -d -1 -p ARP -e 86 -c 2 -a 0 -i 0 -k MAC
r -t 1.093344488 -s 29 -d -1 -p ARP -e 28 -c 2 -a 0 -i 0 -k MAC
r -t 1.093344542 -s 23 -d -1 -p ARP -e 28 -c 2 -a 0 -i 0 -k MAC
r -t 1.093344671 -s 6 -d -1 -p ARP -e 28 -c 2 -a 0 -i 0 -k MAC
+ -t 1.093614671 -s 6 -d -1 -p ARP -e 86 -c 2 -a 0 -i 0 -k MAC 
- -t 1.093614671 -s 6 -d -1 -p ARP -e 86 -c 2 -a 0 -i 0 -k MAC
h -t 1.093614671 -s 6 -d -1 -p ARP -e 86 -c 2 -a 0 -i 0 -k MAC
r -t 1.094303010 -s 11 -d -1 -p ARP -e 28 -c 2 -a 0 -i 0 -k MAC
r -t 1.094303091 -s 29 -d -1 -p ARP -e 28 -c 2 -a 0 -i 0 -k MAC
r -t 1.094303301 -s 19 -d -1 -p ARP -e 28 -c 2 -a 0 -i 0 -k MAC
r -t 1.094303324 -s 25 -d -1 -p ARP -e 28 -c 2 -a 0 -i 0 -k MAC