0.00000  -1 -1 -1 -1 cwnd_ 1.000 
0.00000  -1 -1 -1 -1 ssthresh_ 20
0.00000  -1 -1 -1 -1 ack_ -1
0.00000  -1 -1 -1 -1 maxseq_ -1
Sconfig 0.00000 tap: on snoop: rts? on errs? on
Sconfig 0.00000 salvage: on !bd replies? on
Sconfig 0.00000 grat error: on grat reply: on
Sconfig 0.00000 $reply for props: on ring 0 search: on
Sconfig 0.00000 using MOBICACHE
M 1.00000 2 (1361.00, 1839.00, 0.00), (1424.00, 1740.00), 10.00
M 1.00000 5 (1733.00, 1808.00, 0.00), (1625.00, 1789.00), 10.00
s 1.000000000 _0_ AGT  --- 0 tcp 40 [0 0 0 0] ------- [0:0 9:0 32 0] [0 -1] 0 0
r 1.000000000 _0_ RTR  --- 0 tcp 40 [0 0 0 0] ------- [0:0 9:0 32 0] [0 -1] 0 0
1.00000  0  0  9  0  maxseq_ 1
s 1.007769418 _0_ RTR  --- 1 DSR 32 [0 0 0 0] ------- [0:255 9:255 32 0] 1 [1 1] [0 1 0 0->0] [0 0 0 0->0]
s 1.008324418 _0_ MAC  --- 1 DSR 90 [0 ffffffff 0 800] ------- [0:255 9:255 32 0] 1 [1 1] [0 1 0 0->0] [0 0 0 0->0]
r 1.009045126 _2_ MAC  --- 1 DSR 32 [0 ffffffff 0 800] ------- [0:255 9:255 32 0] 1 [1 1] [0 1 0 0->0] [0 0 0 0->0]
r 1.009045196 _1_ MAC  --- 1 DSR 32 [0 ffffffff 0 800] ------- [0:255 9:255 32 0] 1 [1 1] [0 1 0 0->0] [0 0 0 0->0]
r 1.009070126 _2_ RTR  --- 1 DSR 32 [0 ffffffff 0 800] ------- [0:255 9:255 32 0] 1 [1 1] [0 1 0 0->0] [0 0 0 0->0]
r 1.009070196 _1_ RTR  --- 1 DSR 32 [0 ffffffff 0 800] ------- [0:255 9:255 32 0] 1 [1 1] [0 1 0 0->0] [0 0 0 0->0]
s 1.071490642 _0_ RTR  --- 3 DSR 32 [0 0 0 0] ------- [0:255 9:255 32 0] 1 [1 2] [0 2 0 0->0] [0 0 0 0->0]
s 1.071945642 _0_ MAC  --- 3 DSR 90 [0 ffffffff 0 800] ------- [0:255 9:255 32 0] 1 [1 2] [0 2 0 0->0] [0 0 0 0->0]
r 1.072666350 _2_ MAC  --- 3 DSR 32 [0 ffffffff 0 800] ------- [0:255 9:255 32 0] 1 [1 2] [0 2 0 0->0] [0 0 0 0->0]
r 1.072666420 _1_ MAC  --- 3 DSR 32 [0 ffffffff 0 800] ------- [0:255 9:255 32 0] 1 [1 2] [0 2 0 0->0] [0 0 0 0->0]
r 1.072691350 _2_ RTR  --- 3 DSR 32 [0 ffffffff 0 800] ------- [0:255 9:255 32 0] 1 [1 2] [0 2 0 0->0] [0 0 0 0->0]
r 1.072691420 _1_ RTR  --- 3 DSR 32 [0 ffffffff 0 800] ------- [0:255 9:255 32 0] 1 [1 2] [0 2 0 0->0] [0 0 0 0->0]
f 1.077170939 _2_ RTR  --- 3 DSR 48 [0 ffffffff 0 800] ------- [0:255 9:255 32 0] 2 [1 2] [0 2 0 0->0] [0 0 0 0->0]
s 1.077265939 _2_ MAC  --- 3 DSR 106 [0 ffffffff 2 800] ------- [0:255 9:255 32 0] 2 [1 2] [0 2 0 0->0] [0 0 0 0->0]
r 1.078114610 _3_ MAC  --- 3 DSR 48 [0 ffffffff 2 800] ------- [0:255 9:255 32 0] 2 [1 2] [0 2 0 0->0] [0 0 0 0->0]
r 1.078114647 _0_ MAC  --- 3 DSR 48 [0 ffffffff 2 800] ------- [0:255 9:255 32 0] 2 [1 2] [0 2 0 0->0] [0 0 0 0->0]
r 1.078139610 _3_ RTR  --- 3 DSR 48 [0 ffffffff 2 800] ------- [0:255 9:255 32 0] 2 [1 2] [0 2 0 0->0] [0 0 0 0->0]
r 1.078139647 _0_ RTR  --- 3 DSR 48 [0 ffffffff 2 800] ------- [0:255 9:255 32 0] 2 [1 2] [0 2 0 0->0] [0 0 0 0->0]
f 1.080412630 _1_ RTR  --- 3 DSR 48 [0 ffffffff 0 800] ------- [0:255 9:255 32 0] 2 [1 2] [0 2 0 0->0] [0 0 0 0->0]
s 1.080627630 _1_ MAC  --- 3 DSR 106 [0 ffffffff 1 800] ------- [0:255 9:255 32 0] 2 [1 2] [0 2 0 0->0] [0 0 0 0->0]
r 1.081476132 _6_ MAC  --- 3 DSR 48 [0 ffffffff 1 800] ------- [0:255 9:255 32 0] 2 [1 2] [0 2 0 0->0] [0 0 0 0->0]
r 1.081476408 _0_ MAC  --- 3 DSR 48 [0 ffffffff 1 800] ------- [0:255 9:255 32 0] 2 [1 2] [0 2 0 0->0] [0 0 0 0->0]
r 1.081501132 _6_ RTR  --- 3 DSR 48 [0 ffffffff 1 800] ------- [0:255 9:255 32 0] 2 [1 2] [0 2 0 0->0] [0 0 0 0->0]
r 1.081501408 _0_ RTR  --- 3 DSR 48 [0 ffffffff 1 800] ------- [0:255 9:255 32 0] 2 [1 2] [0 2 0 0->0] [0 0 0 0->0]
f 1.084014032 _6_ RTR  --- 3 DSR 68 [0 ffffffff 1 800] ------- [0:255 9:255 32 0] 3 [1 2] [0 2 0 0->0] [0 0 0 0->0]
f 1.084017297 _3_ RTR  --- 3 DSR 68 [0 ffffffff 2 800] ------- [0:255 9:255 32 0] 3 [1 2] [0 2 0 0->0] [0 0 0 0->0]
s 1.084169032 _6_ MAC  --- 3 DSR 126 [0 ffffffff 6 800] ------- [0:255 9:255 32 0] 3 [1 2] [0 2 0 0->0] [0 0 0 0->0]
r 1.085177523 _4_ MAC  --- 3 DSR 68 [0 ffffffff 6 800] ------- [0:255 9:255 32 0] 3 [1 2] [0 2 0 0->0] [0 0 0 0->0]
r 1.085177534 _1_ MAC  --- 3 DSR 68 [0 ffffffff 6 800] ------- [0:255 9:255 32 0] 3 [1 2] [0 2 0 0->0] [0 0 0 0->0]
r 1.085177763 _7_ MAC  --- 3 DSR 68 [0 ffffffff 6 800] ------- [0:255 9:255 32 0] 3 [1 2] [0 2 0 0->0] [0 0 0 0->0]
r 1.085202523 _4_ RTR  --- 3 DSR 68 [0 ffffffff 6 800] ------- [0:255 9:255 32 0] 3 [1 2] [0 2 0 0->0] [0 0 0 0->0]
r 1.085202534 _1_ RTR  --- 3 DSR 68 [0 ffffffff 6 800] ------- [0:255 9:255 32 0] 3 [1 2] [0 2 0 0->0] [0 0 0 0->0]
r 1.085202763 _7_ RTR  --- 3 DSR 68 [0 ffffffff 6 800] ------- [0:255 9:255 32 0] 3 [1 2] [0 2 0 0->0] [0 0 0 0->0]
s 1.085672236 _3_ MAC  --- 3 DSR 126 [0 ffffffff 3 800] ------- [0:255 9:255 32 0] 3 [1 2] [0 2 0 0->0] [0 0 0 0->0]
f 1.086018381 _4_ RTR  --- 3 DSR 92 [0 ffffffff 6 800] ------- [0:255 9:255 32 0] 4 [1 2] [0 2 0 0->0] [0 0 0 0->0]
r 1.086680906 _2_ MAC  --- 3 DSR 68 [0 ffffffff 3 800] ------- [0:255 9:255 32 0] 3 [1 2] [0 2 0 0->0] [0 0 0 0->0]
r 1.086680936 _5_ MAC  --- 3 DSR 68 [0 ffffffff 3 800] ------- [0:255 9:255 32 0] 3 [1 2] [0 2 0 0->0] [0 0 0 0->0]
r 1.086705906 _2_ RTR  --- 3 DSR 68 [0 ffffffff 3 800] ------- [0:255 9:255 32 0] 3 [1 2] [0 2 0 0->0] [0 0 0 0->0]
r 1.086705936 _5_ RTR  --- 3 DSR 68 [0 ffffffff 3 800] ------- [0:255 9:255 32 0] 3 [1 2] [0 2 0 0->0] [0 0 0 0->0]
s 1.087475172 _4_ MAC  --- 3 DSR 150 [0 ffffffff 4 800] ------- [0:255 9:255 32 0] 4 [1 2] [0 2 0 0->0] [0 0 0 0->0]
r 1.088675539 _7_ MAC  --- 3 DSR 92 [0 ffffffff 4 800] ------- [0:255 9:255 32 0] 4 [1 2] [0 2 0 0->0] [0 0 0 0->0]
r 1.088675662 _6_ MAC  --- 3 DSR 92 [0 ffffffff 4 800] ------- [0:255 9:255 32 0] 4 [1 2] [0 2 0 0->0] [0 0 0 0->0]
r 1.088675805 _5_ MAC  --- 3 DSR 92 [0 ffffffff 4 800] ------- [0:255 9:255 32 0] 4 [1 2] [0 2 0 0->0] [0 0 0 0->0]
r 1.088675924 _8_ MAC  --- 3 DSR 92 [0 ffffffff 4 800] ------- [0:255 9:255 32 0] 4 [1 2] [0 2 0 0->0] [0 0 0 0->0]
r 1.088700539 _7_ RTR  --- 3 DSR 92 [0 ffffffff 4 800] ------- [0:255 9:255 32 0] 4 [1 2] [0 2 0 0->0] [0 0 0 0->0]
r 1.088700662 _6_ RTR  --- 3 DSR 92 [0 ffffffff 4 800] ------- [0:255 9:255 32 0] 4 [1 2] [0 2 0 0->0] [0 0 0 0->0]
r 1.088700805 _5_ RTR  --- 3 DSR 92 [0 ffffffff 4 800] ------- [0:255 9:255 32 0] 4 [1 2] [0 2 0 0->0] [0 0 0 0->0]
r 1.088700924 _8_ RTR  --- 3 DSR 92 [0 ffffffff 4 800] ------- [0:255 9:255 32 0] 4 [1 2] [0 2 0 0->0] [0 0 0 0->0]
f 1.090693742 _5_ RTR  --- 3 DSR 92 [0 ffffffff 3 800] ------- [0:255 9:255 32 0] 4 [1 2] [0 2 0 0->0] [0 0 0 0->0]
s 1.091308742 _5_ MAC  --- 3 DSR 150 [0 ffffffff 5 800] ------- [0:255 9:255 32 0] 4 [1 2] [0 2 0 0->0] [0 0 0 0->0]
r 1.092509101 _8_ MAC  --- 3 DSR 92 [0 ffffffff 5 800] ------- [0:255 9:255 32 0] 4 [1 2] [0 2 0 0->0] [0 0 0 0->0]
r 1.092509188 _9_ MAC  --- 3 DSR 92 [0 ffffffff 5 800] ------- [0:255 9:255 32 0] 4 [1 2] [0 2 0 0->0] [0 0 0 0->0]
r 1.092509376 _4_ MAC  --- 3 DSR 92 [0 ffffffff 5 800] ------- [0:255 9:255 32 0] 4 [1 2] [0 2 0 0->0] [0 0 0 0->0]
r 1.092509442 _7_ MAC  --- 3 DSR 92 [0 ffffffff 5 800] ------- [0:255 9:255 32 0] 4 [1 2] [0 2 0 0->0] [0 0 0 0->0]
r 1.092509443 _3_ MAC  --- 3 DSR 92 [0 ffffffff 5 800] ------- [0:255 9:255 32 0] 4 [1 2] [0 2 0 0->0] [0 0 0 0->0]
r 1.092534101 _8_ RTR  --- 3 DSR 92 [0 ffffffff 5 800] ------- [0:255 9:255 32 0] 4 [1 2] [0 2 0 0->0] [0 0 0 0->0]
r 1.092534188 _9_ RTR  --- 3 DSR 92 [0 ffffffff 5 800] ------- [0:255 9:255 32 0] 4 [1 2] [0 2 0 0->0] [0 0 0 0->0]
r 1.092534376 _4_ RTR  --- 3 DSR 92 [0 ffffffff 5 800] ------- [0:255 9:255 32 0] 4 [1 2] [0 2 0 0->0] [0 0 0 0->0]
r 1.092534442 _7_ RTR  --- 3 DSR 92 [0 ffffffff 5 800] ------- [0:255 9:255 32 0] 4 [1 2] [0 2 0 0->0] [0 0 0 0->0]
r 1.092534443 _3_ RTR  --- 3 DSR 92 [0 ffffffff 5 800] ------- [0:255 9:255 32 0] 4 [1 2] [0 2 0 0->0] [0 0 0 0->0]
f 1.093561258 _7_ RTR  --- 3 DSR 92 [0 ffffffff 6 800] ------- [0:255 9:255 32 0] 4 [1 2] [0 2 0 0->0] [0 0 0 0->0]
s 1.093976258 _7_ MAC  --- 3 DSR 150 [0 ffffffff 7 800] ------- [0:255 9:255 32 0] 4 [1 2] [0 2 0 0->0] [0 0 0 0->0]
r 1.095176625 _4_ MAC  --- 3 DSR 92 [0 ffffffff 7 800] ------- [0:255 9:255 32 0] 4 [1 2] [0 2 0 0->0] [0 0 0 0->0]
r 1.095176883 _8_ MAC  --- 3 DSR 92 [0 ffffffff 7 800] ------- [0:255 9:255 32 0] 4 [1 2] [0 2 0 0->0] [0 0 0 0->0]
r 1.095176957 _5_ MAC  --- 3 DSR 92 [0 ffffffff 7 800] ------- [0:255 9:255 32 0] 4 [1 2] [0 2 0 0->0] [0 0 0 0->0]
r 1.095176988 _6_ MAC  --- 3 DSR 92 [0 ffffffff 7 800] ------- [0:255 9:255 32 0] 4 [1 2] [0 2 0 0->0] [0 0 0 0->0]
r 1.095201625 _4_ RTR  --- 3 DSR 92 [0 ffffffff 7 800] ------- [0:255 9:255 32 0] 4 [1 2] [0 2 0 0->0] [0 0 0 0->0]
r 1.095201883 _8_ RTR  --- 3 DSR 92 [0 ffffffff 7 800] ------- [0:255 9:255 32 0] 4 [1 2] [0 2 0 0->0] [0 0 0 0->0]
r 1.095201957 _5_ RTR  --- 3 DSR 92 [0 ffffffff 7 800] ------- [0:255 9:255 32 0] 4 [1 2] [0 2 0 0->0] [0 0 0 0->0]
r 1.095201988 _6_ RTR  --- 3 DSR 92 [0 ffffffff 7 800] ------- [0:255 9:255 32 0] 4 [1 2] [0 2 0 0->0] [0 0 0 0->0]
f 1.095538800 _8_ RTR  --- 3 DSR 120 [0 ffffffff 4 800] ------- [0:255 9:255 32 0] 5 [1 2] [0 2 0 0->0] [0 0 0 0->0]
s 1.095568909 _9_ RTR  --- 4 DSR 68 [0 0 0 0] ------- [9:255 0:255 254 5] 5 [0 2] [1 2 5 0->9] [0 0 0 0->0]
s 1.095893800 _8_ MAC  --- 3 DSR 178 [0 ffffffff 8 800] ------- [0:255 9:255 32 0] 5 [1 2] [0 2 0 0->0] [0 0 0 0->0]
r 1.097318159 _5_ MAC  --- 3 DSR 120 [0 ffffffff 8 800] ------- [0:255 9:255 32 0] 5 [1 2] [0 2 0 0->0] [0 0 0 0->0]
r 1.097318238 _9_ MAC  --- 3 DSR 120 [0 ffffffff 8 800] ------- [0:255 9:255 32 0] 5 [1 2] [0 2 0 0->0] [0 0 0 0->0]
r 1.097318426 _7_ MAC  --- 3 DSR 120 [0 ffffffff 8 800] ------- [0:255 9:255 32 0] 5 [1 2] [0 2 0 0->0] [0 0 0 0->0]
r 1.097318553 _4_ MAC  --- 3 DSR 120 [0 ffffffff 8 800] ------- [0:255 9:255 32 0] 5 [1 2] [0 2 0 0->0] [0 0 0 0->0]
r 1.097343159 _5_ RTR  --- 3 DSR 120 [0 ffffffff 8 800] ------- [0:255 9:255 32 0] 5 [1 2] [0 2 0 0->0] [0 0 0 0->0]
r 1.097343238 _9_ RTR  --- 3 DSR 120 [0 ffffffff 8 800] ------- [0:255 9:255 32 0] 5 [1 2] [0 2 0 0->0] [0 0 0 0->0]
r 1.097343426 _7_ RTR  --- 3 DSR 120 [0 ffffffff 8 800] ------- [0:255 9:255 32 0] 5 [1 2] [0 2 0 0->0] [0 0 0 0->0]
r 1.097343553 _4_ RTR  --- 3 DSR 120 [0 ffffffff 8 800] ------- [0:255 9:255 32 0] 5 [1 2] [0 2 0 0->0] [0 0 0 0->0]
s 1.097468238 _9_ MAC  --- 0 ARP 86 [0 ffffffff 9 806] ------- [REQUEST 9/9 0/5]
r 1.098156675 _8_ MAC  --- 0 ARP 28 [0 ffffffff 9 806] ------- [REQUEST 9/9 0/5]
r 1.098156684 _5_ MAC  --- 0 ARP 28 [0 ffffffff 9 806] ------- [REQUEST 9/9 0/5]
s 1.098324393 _9_ RTR  --- 5 DSR 76 [0 0 0 0] ------- [9:255 0:255 254 8] 6 [0 2] [1 2 6 0->9] [0 0 0 0->0]
s 1.098519393 _9_ MAC  --- 0 ARP 86 [0 ffffffff 9 806] ------- [REQUEST 9/9 0/8]
r 1.099207831 _8_ MAC  --- 0 ARP 28 [0 ffffffff 9 806] ------- [REQUEST 9/9 0/8]
r 1.099207839 _5_ MAC  --- 0 ARP 28 [0 ffffffff 9 806] ------- [REQUEST 9/9 0/8]
s 1.099357831 _8_ MAC  --- 0 RTS 44 [52e 9 8 0] 
r 1.099710268 _9_ MAC  --- 0 RTS 44 [52e 9 8 0] 
s 1.099720268 _9_ MAC  --- 0 CTS 38 [3f4 8 0 0] 
r 1.100024705 _8_ MAC  --- 0 CTS 38 [3f4 8 0 0] 
s 1.100034705 _8_ MAC  --- 0 ARP 86 [13a 9 8 806] ------- [REPLY 8/8 9/9]
r 1.100723143 _9_ MAC  --- 0 ARP 28 [13a 9 8 806] ------- [REPLY 8/8 9/9]
s 1.100733143 _9_ MAC  --- 0 ACK 38 [0 8 0 0] 
r 1.101037580 _8_ MAC  --- 0 ACK 38 [0 8 0 0] 
s 1.101287589 _5_ MAC  --- 0 RTS 44 [52e 9 5 0] 
r 1.101640035 _9_ MAC  --- 0 RTS 44 [52e 9 5 0] 
s 1.101650035 _9_ MAC  --- 0 CTS 38 [3f4 5 0 0] 
r 1.101954481 _5_ MAC  --- 0 CTS 38 [3f4 5 0 0] 
s 1.101964481 _5_ MAC  --- 0 ARP 86 [13a 9 5 806] ------- [REPLY 5/5 9/9]
r 1.102652927 _9_ MAC  --- 0 ARP 28 [13a 9 5 806] ------- [REPLY 5/5 9/9]
s 1.102662927 _9_ MAC  --- 0 ACK 38 [0 5 0 0] 
r 1.102967373 _5_ MAC  --- 0 ACK 38 [0 5 0 0] 
s 1.103056927 _9_ MAC  --- 0 RTS 44 [6ae 8 9 0] 
r 1.103409364 _8_ MAC  --- 0 RTS 44 [6ae 8 9 0] 
s 1.103419364 _8_ MAC  --- 0 CTS 38 [574 9 0 0] 
r 1.103723801 _9_ MAC  --- 0 CTS 38 [574 9 0 0] 
s 1.103733801 _9_ MAC  --- 5 DSR 134 [13a 8 9 800] ------- [9:255 0:255 254 8] 6 [0 2] [1 2 6 0->9] [0 0 0 0->0]
r 1.104806238 _8_ MAC  --- 5 DSR 76 [13a 8 9 800] ------- [9:255 0:255 254 8] 6 [0 2] [1 2 6 0->9] [0 0 0 0->0]
s 1.104816238 _8_ MAC  --- 0 ACK 38 [0 9 0 0] 
r 1.104831238 _8_ RTR  --- 5 DSR 76 [13a 8 9 800] ------- [9:255 0:255 254 8] 6 [0 2] [1 2 6 0->9] [0 0 0 0->0]
f 1.104831238 _8_ RTR  --- 5 DSR 76 [13a 8 9 800] ------- [9:255 0:255 253 4] 6 [0 2] [1 2 6 0->9] [0 0 0 0->0]
r 1.105120676 _9_ MAC  --- 0 ACK 38 [0 9 0 0] 
s 1.105450238 _8_ MAC  --- 0 ARP 86 [0 ffffffff 8 806] ------- [REQUEST 8/8 0/4]
r 1.106138598 _5_ MAC  --- 0 ARP 28 [0 ffffffff 8 806] ------- [REQUEST 8/8 0/4]
r 1.106138676 _9_ MAC  --- 0 ARP 28 [0 ffffffff 8 806] ------- [REQUEST 8/8 0/4]
r 1.106138864 _7_ MAC  --- 0 ARP 28 [0 ffffffff 8 806] ------- [REQUEST 8/8 0/4]
r 1.106138991 _4_ MAC  --- 0 ARP 28 [0 ffffffff 8 806] ------- [REQUEST 8/8 0/4]
s 1.106193991 _4_ MAC  --- 0 RTS 44 [52e 8 4 0] 
r 1.106546743 _8_ MAC  --- 0 RTS 44 [52e 8 4 0] 
s 1.106556743 _8_ MAC  --- 0 CTS 38 [3f4 4 0 0] 
r 1.106861495 _4_ MAC  --- 0 CTS 38 [3f4 4 0 0] 
s 1.106871495 _4_ MAC  --- 0 ARP 86 [13a 8 4 806] ------- [REPLY 4/4 8/8]
r 1.107560248 _8_ MAC  --- 0 ARP 28 [13a 8 4 806] ------- [REPLY 4/4 8/8]
s 1.107570248 _8_ MAC  --- 0 ACK 38 [0 4 0 0] 
r 1.107875000 _4_ MAC  --- 0 ACK 38 [0 4 0 0] 
s 1.108134557 _9_ MAC  --- 0 RTS 44 [66e 5 9 0] 
r 1.108487004 _5_ MAC  --- 0 RTS 44 [66e 5 9 0] 
s 1.108497004 _5_ MAC  --- 0 CTS 38 [534 9 0 0] 
r 1.108801450 _9_ MAC  --- 0 CTS 38 [534 9 0 0] 
s 1.108811450 _9_ MAC  --- 4 DSR 126 [13a 5 9 800] ------- [9:255 0:255 254 5] 5 [0 2] [1 2 5 0->9] [0 0 0 0->0]
r 1.109819896 _5_ MAC  --- 4 DSR 68 [13a 5 9 800] ------- [9:255 0:255 254 5] 5 [0 2] [1 2 5 0->9] [0 0 0 0->0]
s 1.109829896 _5_ MAC  --- 0 ACK 38 [0 9 0 0] 
r 1.109844896 _5_ RTR  --- 4 DSR 68 [13a 5 9 800] ------- [9:255 0:255 254 5] 5 [0 2] [1 2 5 0->9] [0 0 0 0->0]
f 1.109844896 _5_ RTR  --- 4 DSR 68 [13a 5 9 800] ------- [9:255 0:255 253 3] 5 [0 2] [1 2 5 0->9] [0 0 0 0->0]
r 1.110134342 _9_ MAC  --- 0 ACK 38 [0 9 0 0] 
s 1.110224255 _8_ MAC  --- 0 RTS 44 [6ae 4 8 0] 
r 1.110577008 _4_ MAC  --- 0 RTS 44 [6ae 4 8 0] 
s 1.110587008 _4_ MAC  --- 0 CTS 38 [574 8 0 0] 
r 1.110891760 _8_ MAC  --- 0 CTS 38 [574 8 0 0] 
s 1.110901760 _8_ MAC  --- 5 DSR 134 [13a 4 8 800] ------- [9:255 0:255 253 4] 6 [0 2] [1 2 6 0->9] [0 0 0 0->0]
r 1.111974512 _4_ MAC  --- 5 DSR 76 [13a 4 8 800] ------- [9:255 0:255 253 4] 6 [0 2] [1 2 6 0->9] [0 0 0 0->0]
s 1.111984512 _4_ MAC  --- 0 ACK 38 [0 8 0 0] 
r 1.111999512 _4_ RTR  --- 5 DSR 76 [13a 4 8 800] ------- [9:255 0:255 253 4] 6 [0 2] [1 2 6 0->9] [0 0 0 0->0]
f 1.111999512 _4_ RTR  --- 5 DSR 76 [13a 4 8 800] ------- [9:255 0:255 252 6] 6 [0 2] [1 2 6 0->9] [0 0 0 0->0]
r 1.112289264 _8_ MAC  --- 0 ACK 38 [0 8 0 0] 
s 1.112379145 _5_ MAC  --- 0 ARP 86 [0 ffffffff 5 806] ------- [REQUEST 5/5 0/3]
r 1.113067504 _8_ MAC  --- 0 ARP 28 [0 ffffffff 5 806] ------- [REQUEST 5/5 0/3]
r 1.113067591 _9_ MAC  --- 0 ARP 28 [0 ffffffff 5 806] ------- [REQUEST 5/5 0/3]
r 1.113067778 _4_ MAC  --- 0 ARP 28 [0 ffffffff 5 806] ------- [REQUEST 5/5 0/3]
r 1.113067844 _7_ MAC  --- 0 ARP 28 [0 ffffffff 5 806] ------- [REQUEST 5/5 0/3]
r 1.113067845 _3_ MAC  --- 0 ARP 28 [0 ffffffff 5 806] ------- [REQUEST 5/5 0/3]
s 1.113602845 _3_ MAC  --- 0 RTS 44 [52e 5 3 0] 
r 1.113955545 _5_ MAC  --- 0 RTS 44 [52e 5 3 0] 
s 1.113965545 _5_ MAC  --- 0 CTS 38 [3f4 3 0 0] 
r 1.114270245 _3_ MAC  --- 0 CTS 38 [3f4 3 0 0] 
s 1.114280245 _3_ MAC  --- 0 ARP 86 [13a 5 3 806] ------- [REPLY 3/3 5/5]
r 1.114968945 _5_ MAC  --- 0 ARP 28 [13a 5 3 806] ------- [REPLY 3/3 5/5]
s 1.114978945 _5_ MAC  --- 0 ACK 38 [0 3 0 0] 
r 1.115283645 _3_ MAC  --- 0 ACK 38 [0 3 0 0] 
s 1.115332945 _5_ MAC  --- 0 RTS 44 [66e 3 5 0] 
r 1.115685645 _3_ MAC  --- 0 RTS 44 [66e 3 5 0] 
s 1.115695645 _3_ MAC  --- 0 CTS 38 [534 5 0 0] 
r 1.116000345 _5_ MAC  --- 0 CTS 38 [534 5 0 0] 
s 1.116010345 _5_ MAC  --- 4 DSR 126 [13a 3 5 800] ------- [9:255 0:255 253 3] 5 [0 2] [1 2 5 0->9] [0 0 0 0->0]
r 1.117019044 _3_ MAC  --- 4 DSR 68 [13a 3 5 800] ------- [9:255 0:255 253 3] 5 [0 2] [1 2 5 0->9] [0 0 0 0->0]
s 1.117029044 _3_ MAC  --- 0 ACK 38 [0 5 0 0] 
r 1.117044044 _3_ RTR  --- 4 DSR 68 [13a 3 5 800] ------- [9:255 0:255 253 3] 5 [0 2] [1 2 5 0->9] [0 0 0 0->0]
f 1.117044044 _3_ RTR  --- 4 DSR 68 [13a 3 5 800] ------- [9:255 0:255 252 2] 5 [0 2] [1 2 5 0->9] [0 0 0 0->0]
r 1.117333744 _5_ MAC  --- 0 ACK 38 [0 5 0 0] 
s 1.117783044 _3_ MAC  --- 0 ARP 86 [0 ffffffff 3 806] ------- [REQUEST 3/3 0/2]
r 1.118471715 _2_ MAC  --- 0 ARP 28 [0 ffffffff 3 806] ------- [REQUEST 3/3 0/2]
r 1.118471744 _5_ MAC  --- 0 ARP 28 [0 ffffffff 3 806] ------- [REQUEST 3/3 0/2]
s 1.118826715 _2_ MAC  --- 0 RTS 44 [52e 3 2 0] 
r 1.119179385 _3_ MAC  --- 0 RTS 44 [52e 3 2 0] 
s 1.119189385 _3_ MAC  --- 0 CTS 38 [3f4 2 0 0] 
r 1.119494055 _2_ MAC  --- 0 CTS 38 [3f4 2 0 0] 
s 1.119504055 _2_ MAC  --- 0 ARP 86 [13a 3 2 806] ------- [REPLY 2/2 3/3]
r 1.120192726 _3_ MAC  --- 0 ARP 28 [13a 3 2 806] ------- [REPLY 2/2 3/3]
s 1.120202726 _3_ MAC  --- 0 ACK 38 [0 2 0 0] 
r 1.120507396 _2_ MAC  --- 0 ACK 38 [0 2 0 0] 
s 1.120836726 _3_ MAC  --- 0 RTS 44 [66e 2 3 0] 
r 1.121189396 _2_ MAC  --- 0 RTS 44 [66e 2 3 0] 
s 1.121199396 _2_ MAC  --- 0 CTS 38 [534 3 0 0] 
r 1.121504066 _3_ MAC  --- 0 CTS 38 [534 3 0 0] 
s 1.121514066 _3_ MAC  --- 4 DSR 126 [13a 2 3 800] ------- [9:255 0:255 252 2] 5 [0 2] [1 2 5 0->9] [0 0 0 0->0]
r 1.122522736 _2_ MAC  --- 4 DSR 68 [13a 2 3 800] ------- [9:255 0:255 252 2] 5 [0 2] [1 2 5 0->9] [0 0 0 0->0]
s 1.122532736 _2_ MAC  --- 0 ACK 38 [0 3 0 0] 
r 1.122547736 _2_ RTR  --- 4 DSR 68 [13a 2 3 800] ------- [9:255 0:255 252 2] 5 [0 2] [1 2 5 0->9] [0 0 0 0->0]
f 1.122547736 _2_ RTR  --- 4 DSR 68 [13a 2 3 800] ------- [9:255 0:255 251 0] 5 [0 2] [1 2 5 0->9] [0 0 0 0->0]
r 1.122837407 _3_ MAC  --- 0 ACK 38 [0 3 0 0] 
s 1.122986736 _2_ MAC  --- 0 ARP 86 [0 ffffffff 2 806] ------- [REQUEST 2/2 0/0]
r 1.123675407 _3_ MAC  --- 0 ARP 28 [0 ffffffff 2 806] ------- [REQUEST 2/2 0/0]
r 1.123675444 _0_ MAC  --- 0 ARP 28 [0 ffffffff 2 806] ------- [REQUEST 2/2 0/0]
s 1.123990444 _0_ MAC  --- 0 RTS 44 [52e 2 0 0] 
r 1.124343152 _2_ MAC  --- 0 RTS 44 [52e 2 0 0] 
s 1.124353152 _2_ MAC  --- 0 CTS 38 [3f4 0 0 0] 
r 1.124657860 _0_ MAC  --- 0 CTS 38 [3f4 0 0 0] 
s 1.124667860 _0_ MAC  --- 0 ARP 86 [13a 2 0 806] ------- [REPLY 0/0 2/2]
r 1.125356567 _2_ MAC  --- 0 ARP 28 [13a 2 0 806] ------- [REPLY 0/0 2/2]
s 1.125366567 _2_ MAC  --- 0 ACK 38 [0 0 0 0] 
r 1.125671275 _0_ MAC  --- 0 ACK 38 [0 0 0 0] 
s 1.126040567 _2_ MAC  --- 0 RTS 44 [66e 0 2 0] 
r 1.126393275 _0_ MAC  --- 0 RTS 44 [66e 0 2 0] 
s 1.126403275 _0_ MAC  --- 0 CTS 38 [534 2 0 0] 
r 1.126707983 _2_ MAC  --- 0 CTS 38 [534 2 0 0] 
s 1.126717983 _2_ MAC  --- 4 DSR 126 [13a 0 2 800] ------- [9:255 0:255 251 0] 5 [0 2] [1 2 5 0->9] [0 0 0 0->0]
r 1.127726690 _0_ MAC  --- 4 DSR 68 [13a 0 2 800] ------- [9:255 0:255 251 0] 5 [0 2] [1 2 5 0->9] [0 0 0 0->0]
s 1.127736690 _0_ MAC  --- 0 ACK 38 [0 2 0 0] 
r 1.127751690 _0_ RTR  --- 4 DSR 68 [13a 0 2 800] ------- [9:255 0:255 251 0] 5 [0 2] [1 2 5 0->9] [0 0 0 0->0]
SFESTs 1.127751690 _0_ 0 [0 -> 9] 1(1) to 2 [0 |2 3 5 9 ]
s 1.127751690 _0_ RTR  --- 0 tcp 88 [0 0 0 0] ------- [0:0 9:0 32 2] [0 -1] 0 0
r 1.128041398 _2_ MAC  --- 0 ACK 38 [0 2 0 0] 
s 1.128130690 _0_ MAC  --- 0 RTS 44 [70e 2 0 0] 
r 1.128483398 _2_ MAC  --- 0 RTS 44 [70e 2 0 0] 
s 1.128493398 _2_ MAC  --- 0 CTS 38 [5d4 0 0 0] 
r 1.128798106 _0_ MAC  --- 0 CTS 38 [5d4 0 0 0] 
s 1.128808106 _0_ MAC  --- 0 tcp 146 [13a 2 0 800] ------- [0:0 9:0 32 2] [0 -1] 0 0
r 1.129976814 _2_ MAC  --- 0 tcp 88 [13a 2 0 800] ------- [0:0 9:0 32 2] [0 -1] 1 0
s 1.129986814 _2_ MAC  --- 0 ACK 38 [0 0 0 0] 
r 1.130001814 _2_ RTR  --- 0 tcp 88 [13a 2 0 800] ------- [0:0 9:0 32 2] [0 -1] 1 0
f 1.130001814 _2_ RTR  --- 0 tcp 88 [13a 2 0 800] ------- [0:0 9:0 31 3] [0 -1] 1 0
r 1.130291521 _0_ MAC  --- 0 ACK 38 [0 0 0 0] 
s 1.130725933 _4_ MAC  --- 0 ARP 86 [0 ffffffff 4 806] ------- [REQUEST 4/4 0/6]
r 1.131414300 _7_ MAC  --- 0 ARP 28 [0 ffffffff 4 806] ------- [REQUEST 4/4 0/6]
r 1.131414424 _6_ MAC  --- 0 ARP 28 [0 ffffffff 4 806] ------- [REQUEST 4/4 0/6]
r 1.131414566 _5_ MAC  --- 0 ARP 28 [0 ffffffff 4 806] ------- [REQUEST 4/4 0/6]
r 1.131414686 _8_ MAC  --- 0 ARP 28 [0 ffffffff 4 806] ------- [REQUEST 4/4 0/6]
s 1.131609424 _6_ MAC  --- 0 RTS 44 [52e 4 6 0] 
r 1.131961914 _4_ MAC  --- 0 RTS 44 [52e 4 6 0] 
s 1.131971914 _4_ MAC  --- 0 CTS 38 [3f4 6 0 0] 
r 1.132276405 _6_ MAC  --- 0 CTS 38 [3f4 6 0 0] 
s 1.132286405 _6_ MAC  --- 0 ARP 86 [13a 4 6 806] ------- [REPLY 6/6 4/4]
r 1.132974895 _4_ MAC  --- 0 ARP 28 [13a 4 6 806] ------- [REPLY 6/6 4/4]
s 1.132984895 _4_ MAC  --- 0 ACK 38 [0 6 0 0] 
r 1.133289385 _6_ MAC  --- 0 ACK 38 [0 6 0 0] 
s 1.133358895 _4_ MAC  --- 0 RTS 44 [6ae 6 4 0] 
r 1.133711385 _6_ MAC  --- 0 RTS 44 [6ae 6 4 0] 
s 1.133721385 _6_ MAC  --- 0 CTS 38 [574 4 0 0] 
r 1.134025876 _4_ MAC  --- 0 CTS 38 [574 4 0 0] 
s 1.134035876 _4_ MAC  --- 5 DSR 134 [13a 6 4 800] ------- [9:255 0:255 252 6] 6 [0 2] [1 2 6 0->9] [0 0 0 0->0]
r 1.135108366 _6_ MAC  --- 5 DSR 76 [13a 6 4 800] ------- [9:255 0:255 252 6] 6 [0 2] [1 2 6 0->9] [0 0 0 0->0]
s 1.135118366 _6_ MAC  --- 0 ACK 38 [0 4 0 0] 
r 1.135133366 _6_ RTR  --- 5 DSR 76 [13a 6 4 800] ------- [9:255 0:255 252 6] 6 [0 2] [1 2 6 0->9] [0 0 0 0->0]
f 1.135133366 _6_ RTR  --- 5 DSR 76 [13a 6 4 800] ------- [9:255 0:255 251 1] 6 [0 2] [1 2 6 0->9] [0 0 0 0->0]
r 1.135422857 _4_ MAC  --- 0 ACK 38 [0 4 0 0] 
s 1.135877461 _2_ MAC  --- 0 RTS 44 [70e 3 2 0] 
r 1.136230132 _3_ MAC  --- 0 RTS 44 [70e 3 2 0] 
s 1.136240132 _3_ MAC  --- 0 CTS 38 [5d4 2 0 0] 
r 1.136544802 _2_ MAC  --- 0 CTS 38 [5d4 2 0 0] 
s 1.136554802 _2_ MAC  --- 0 tcp 146 [13a 3 2 800] ------- [0:0 9:0 31 3] [0 -1] 1 0
r 1.137723472 _3_ MAC  --- 0 tcp 88 [13a 3 2 800] ------- [0:0 9:0 31 3] [0 -1] 2 0
s 1.137733472 _3_ MAC  --- 0 ACK 38 [0 2 0 0] 
r 1.137748472 _3_ RTR  --- 0 tcp 88 [13a 3 2 800] ------- [0:0 9:0 31 3] [0 -1] 2 0
f 1.137748472 _3_ RTR  --- 0 tcp 88 [13a 3 2 800] ------- [0:0 9:0 30 5] [0 -1] 2 0
r 1.138038142 _2_ MAC  --- 0 ACK 38 [0 2 0 0] 
s 1.138552675 _6_ MAC  --- 0 ARP 86 [0 ffffffff 6 806] ------- [REQUEST 6/6 0/1]
r 1.139241166 _4_ MAC  --- 0 ARP 28 [0 ffffffff 6 806] ------- [REQUEST 6/6 0/1]
r 1.139241177 _1_ MAC  --- 0 ARP 28 [0 ffffffff 6 806] ------- [REQUEST 6/6 0/1]
r 1.139241406 _7_ MAC  --- 0 ARP 28 [0 ffffffff 6 806] ------- [REQUEST 6/6 0/1]
s 1.139676177 _1_ MAC  --- 0 RTS 44 [52e 6 1 0] 
r 1.140028679 _6_ MAC  --- 0 RTS 44 [52e 6 1 0] 
s 1.140038679 _6_ MAC  --- 0 CTS 38 [3f4 1 0 0] 
r 1.140343181 _1_ MAC  --- 0 CTS 38 [3f4 1 0 0] 
s 1.140353181 _1_ MAC  --- 0 ARP 86 [13a 6 1 806] ------- [REPLY 1/1 6/6]
r 1.141041683 _6_ MAC  --- 0 ARP 28 [13a 6 1 806] ------- [REPLY 1/1 6/6]
s 1.141051683 _6_ MAC  --- 0 ACK 38 [0 1 0 0] 
r 1.141356185 _1_ MAC  --- 0 ACK 38 [0 1 0 0] 
s 1.141565683 _6_ MAC  --- 0 RTS 44 [6ae 1 6 0] 
r 1.141918185 _1_ MAC  --- 0 RTS 44 [6ae 1 6 0] 
s 1.141928185 _1_ MAC  --- 0 CTS 38 [574 6 0 0] 
r 1.142232687 _6_ MAC  --- 0 CTS 38 [574 6 0 0] 
s 1.142242687 _6_ MAC  --- 5 DSR 134 [13a 1 6 800] ------- [9:255 0:255 251 1] 6 [0 2] [1 2 6 0->9] [0 0 0 0->0]
r 1.143315188 _1_ MAC  --- 5 DSR 76 [13a 1 6 800] ------- [9:255 0:255 251 1] 6 [0 2] [1 2 6 0->9] [0 0 0 0->0]
s 1.143325188 _1_ MAC  --- 0 ACK 38 [0 6 0 0] 
r 1.143340188 _1_ RTR  --- 5 DSR 76 [13a 1 6 800] ------- [9:255 0:255 251 1] 6 [0 2] [1 2 6 0->9] [0 0 0 0->0]
f 1.143340188 _1_ RTR  --- 5 DSR 76 [13a 1 6 800] ------- [9:255 0:255 250 0] 6 [0 2] [1 2 6 0->9] [0 0 0 0->0]
r 1.143629690 _6_ MAC  --- 0 ACK 38 [0 6 0 0] 
s 1.143959188 _1_ MAC  --- 0 ARP 86 [0 ffffffff 1 806] ------- [REQUEST 1/1 0/0]
r 1.144647690 _6_ MAC  --- 0 ARP 28 [0 ffffffff 1 806] ------- [REQUEST 1/1 0/0]
r 1.144647967 _0_ MAC  --- 0 ARP 28 [0 ffffffff 1 806] ------- [REQUEST 1/1 0/0]
s 1.144742967 _0_ MAC  --- 0 RTS 44 [52e 1 0 0] 
r 1.145095745 _1_ MAC  --- 0 RTS 44 [52e 1 0 0] 
s 1.145105745 _1_ MAC  --- 0 CTS 38 [3f4 0 0 0] 
r 1.145410523 _0_ MAC  --- 0 CTS 38 [3f4 0 0 0] 
s 1.145420523 _0_ MAC  --- 0 ARP 86 [13a 1 0 806] ------- [REPLY 0/0 1/1]
r 1.146109301 _1_ MAC  --- 0 ARP 28 [13a 1 0 806] ------- [REPLY 0/0 1/1]
s 1.146119301 _1_ MAC  --- 0 ACK 38 [0 0 0 0] 
r 1.146424079 _0_ MAC  --- 0 ACK 38 [0 0 0 0] 
s 1.146873301 _1_ MAC  --- 0 RTS 44 [6ae 0 1 0] 
r 1.147226079 _0_ MAC  --- 0 RTS 44 [6ae 0 1 0] 
s 1.147236079 _0_ MAC  --- 0 CTS 38 [574 1 0 0] 
r 1.147540857 _1_ MAC  --- 0 CTS 38 [574 1 0 0] 
s 1.147550857 _1_ MAC  --- 5 DSR 134 [13a 0 1 800] ------- [9:255 0:255 250 0] 6 [0 2] [1 2 6 0->9] [0 0 0 0->0]
r 1.148623636 _0_ MAC  --- 5 DSR 76 [13a 0 1 800] ------- [9:255 0:255 250 0] 6 [0 2] [1 2 6 0->9] [0 0 0 0->0]
s 1.148633636 _0_ MAC  --- 0 ACK 38 [0 1 0 0] 
r 1.148648636 _0_ RTR  --- 5 DSR 76 [13a 0 1 800] ------- [9:255 0:255 250 0] 6 [0 2] [1 2 6 0->9] [0 0 0 0->0]
r 1.148938414 _1_ MAC  --- 0 ACK 38 [0 1 0 0] 
s 1.149452993 _3_ MAC  --- 0 RTS 44 [70e 5 3 0] 
r 1.149805692 _5_ MAC  --- 0 RTS 44 [70e 5 3 0] 
s 1.149815692 _5_ MAC  --- 0 CTS 38 [5d4 3 0 0] 
r 1.150120391 _3_ MAC  --- 0 CTS 38 [5d4 3 0 0] 
s 1.150130391 _3_ MAC  --- 0 tcp 146 [13a 5 3 800] ------- [0:0 9:0 30 5] [0 -1] 2 0
r 1.151299090 _5_ MAC  --- 0 tcp 88 [13a 5 3 800] ------- [0:0 9:0 30 5] [0 -1] 3 0
s 1.151309090 _5_ MAC  --- 0 ACK 38 [0 3 0 0] 
r 1.151324090 _5_ RTR  --- 0 tcp 88 [13a 5 3 800] ------- [0:0 9:0 30 5] [0 -1] 3 0
f 1.151324090 _5_ RTR  --- 0 tcp 88 [13a 5 3 800] ------- [0:0 9:0 29 9] [0 -1] 3 0
r 1.151613789 _3_ MAC  --- 0 ACK 38 [0 3 0 0] 
s 1.152003090 _5_ MAC  --- 0 RTS 44 [70e 9 5 0] 
r 1.152355537 _9_ MAC  --- 0 RTS 44 [70e 9 5 0] 
s 1.152365537 _9_ MAC  --- 0 CTS 38 [5d4 5 0 0] 
r 1.152669985 _5_ MAC  --- 0 CTS 38 [5d4 5 0 0] 
s 1.152679985 _5_ MAC  --- 0 tcp 146 [13a 9 5 800] ------- [0:0 9:0 29 9] [0 -1] 3 0
r 1.153848432 _9_ MAC  --- 0 tcp 88 [13a 9 5 800] ------- [0:0 9:0 29 9] [0 -1] 4 0
s 1.153858432 _9_ MAC  --- 0 ACK 38 [0 5 0 0] 
r 1.153873432 _9_ RTR  --- 0 tcp 88 [13a 9 5 800] ------- [0:0 9:0 29 9] [0 -1] 4 0
r 1.153873432 _9_ AGT  --- 0 tcp 40 [13a 9 5 800] ------- [0:0 9:0 29 9] [0 -1] 4 0
r 1.154162880 _5_ MAC  --- 0 ACK 38 [0 5 0 0] 
4.00000  0  0  9  0  ssthresh_ 0
4.00000  0  0  9  0  ssthresh_ 2
s 4.000000000 _0_ AGT  --- 7 tcp 40 [0 0 0 0] ------- [0:0 9:0 32 0] [0 -1] 0 0
r 4.000000000 _0_ RTR  --- 7 tcp 40 [0 0 0 0] ------- [0:0 9:0 32 0] [0 -1] 0 0
SFESTs 4.000000000 _0_ 7 [0 -> 9] 1(1) to 2 [0 |2 3 5 9 ]
s 4.000000000 _0_ RTR  --- 7 tcp 88 [0 0 0 0] ------- [0:0 9:0 32 2] [0 -1] 0 0
s 4.000235000 _0_ MAC  --- 0 RTS 44 [70e 2 0 0] 
r 4.000587700 _2_ MAC  --- 0 RTS 44 [70e 2 0 0] 
s 4.000597700 _2_ MAC  --- 0 CTS 38 [5d4 0 0 0] 
r 4.000902399 _0_ MAC  --- 0 CTS 38 [5d4 0 0 0] 
s 4.000912399 _0_ MAC  --- 7 tcp 146 [13a 2 0 800] ------- [0:0 9:0 32 2] [0 -1] 0 0
r 4.002081099 _2_ MAC  --- 7 tcp 88 [13a 2 0 800] ------- [0:0 9:0 32 2] [0 -1] 1 0
s 4.002091099 _2_ MAC  --- 0 ACK 38 [0 0 0 0] 
r 4.002106099 _2_ RTR  --- 7 tcp 88 [13a 2 0 800] ------- [0:0 9:0 32 2] [0 -1] 1 0
f 4.002106099 _2_ RTR  --- 7 tcp 88 [13a 2 0 800] ------- [0:0 9:0 31 3] [0 -1] 1 0
r 4.002395798 _0_ MAC  --- 0 ACK 38 [0 0 0 0] 
s 4.002685099 _2_ MAC  --- 0 RTS 44 [70e 3 2 0] 
r 4.003037757 _3_ MAC  --- 0 RTS 44 [70e 3 2 0] 
s 4.003047757 _3_ MAC  --- 0 CTS 38 [5d4 2 0 0] 
r 4.003352416 _2_ MAC  --- 0 CTS 38 [5d4 2 0 0] 
s 4.003362416 _2_ MAC  --- 7 tcp 146 [13a 3 2 800] ------- [0:0 9:0 31 3] [0 -1] 1 0
r 4.004531074 _3_ MAC  --- 7 tcp 88 [13a 3 2 800] ------- [0:0 9:0 31 3] [0 -1] 2 0
s 4.004541074 _3_ MAC  --- 0 ACK 38 [0 2 0 0] 
r 4.004556074 _3_ RTR  --- 7 tcp 88 [13a 3 2 800] ------- [0:0 9:0 31 3] [0 -1] 2 0
f 4.004556074 _3_ RTR  --- 7 tcp 88 [13a 3 2 800] ------- [0:0 9:0 30 5] [0 -1] 2 0
r 4.004845732 _2_ MAC  --- 0 ACK 38 [0 2 0 0] 
s 4.005415074 _3_ MAC  --- 0 RTS 44 [70e 5 3 0] 
r 4.005767702 _5_ MAC  --- 0 RTS 44 [70e 5 3 0] 
s 4.005777702 _5_ MAC  --- 0 CTS 38 [5d4 3 0 0] 
r 4.006082331 _3_ MAC  --- 0 CTS 38 [5d4 3 0 0] 
s 4.006092331 _3_ MAC  --- 7 tcp 146 [13a 5 3 800] ------- [0:0 9:0 30 5] [0 -1] 2 0
r 4.007260959 _5_ MAC  --- 7 tcp 88 [13a 5 3 800] ------- [0:0 9:0 30 5] [0 -1] 3 0
s 4.007270959 _5_ MAC  --- 0 ACK 38 [0 3 0 0] 
r 4.007285959 _5_ RTR  --- 7 tcp 88 [13a 5 3 800] ------- [0:0 9:0 30 5] [0 -1] 3 0
f 4.007285959 _5_ RTR  --- 7 tcp 88 [13a 5 3 800] ------- [0:0 9:0 29 9] [0 -1] 3 0
r 4.007575588 _3_ MAC  --- 0 ACK 38 [0 3 0 0] 
s 4.007724959 _5_ MAC  --- 0 RTS 44 [70e 9 5 0] 
r 4.008077492 _9_ MAC  --- 0 RTS 44 [70e 9 5 0] 
s 4.008087492 _9_ MAC  --- 0 CTS 38 [5d4 5 0 0] 
r 4.008392025 _5_ MAC  --- 0 CTS 38 [5d4 5 0 0] 
s 4.008402025 _5_ MAC  --- 7 tcp 146 [13a 9 5 800] ------- [0:0 9:0 29 9] [0 -1] 3 0
r 4.009570558 _9_ MAC  --- 7 tcp 88 [13a 9 5 800] ------- [0:0 9:0 29 9] [0 -1] 4 0
s 4.009580558 _9_ MAC  --- 0 ACK 38 [0 5 0 0] 
r 4.009595558 _9_ RTR  --- 7 tcp 88 [13a 9 5 800] ------- [0:0 9:0 29 9] [0 -1] 4 0
r 4.009595558 _9_ AGT  --- 7 tcp 40 [13a 9 5 800] ------- [0:0 9:0 29 9] [0 -1] 4 0
r 4.009885091 _5_ MAC  --- 0 ACK 38 [0 5 0 0] 
10.00000 0  0  9  0  ssthresh_ 0
10.00000 0  0  9  0  ssthresh_ 2
s 10.000000000 _0_ AGT  --- 8 tcp 40 [0 0 0 0] ------- [0:0 9:0 32 0] [0 -1] 0 0
r 10.000000000 _0_ RTR  --- 8 tcp 40 [0 0 0 0] ------- [0:0 9:0 32 0] [0 -1] 0 0
SFESTs 10.000000000 _0_ 8 [0 -> 9] 1(1) to 2 [0 |2 3 5 9 ]
s 10.000000000 _0_ RTR  --- 8 tcp 88 [0 0 0 0] ------- [0:0 9:0 32 2] [0 -1] 0 0
s 10.000575000 _0_ MAC  --- 0 RTS 44 [70e 2 0 0] 
r 10.000927724 _2_ MAC  --- 0 RTS 44 [70e 2 0 0] 
s 10.000937724 _2_ MAC  --- 0 CTS 38 [5d4 0 0 0] 
r 10.001242449 _0_ MAC  --- 0 CTS 38 [5d4 0 0 0] 
s 10.001252449 _0_ MAC  --- 8 tcp 146 [13a 2 0 800] ------- [0:0 9:0 32 2] [0 -1] 0 0
r 10.002421173 _2_ MAC  --- 8 tcp 88 [13a 2 0 800] ------- [0:0 9:0 32 2] [0 -1] 1 0
s 10.002431173 _2_ MAC  --- 0 ACK 38 [0 0 0 0] 
r 10.002446173 _2_ RTR  --- 8 tcp 88 [13a 2 0 800] ------- [0:0 9:0 32 2] [0 -1] 1 0
f 10.002446173 _2_ RTR  --- 8 tcp 88 [13a 2 0 800] ------- [0:0 9:0 31 3] [0 -1] 1 0
r 10.002735897 _0_ MAC  --- 0 ACK 38 [0 0 0 0] 
s 10.003045173 _2_ MAC  --- 0 RTS 44 [70e 3 2 0] 
r 10.003397851 _3_ MAC  --- 0 RTS 44 [70e 3 2 0] 