n -t * -s 0  -x 1202 -y 1698 -Z 0 -z 20  -v circle -c black
n -t * -s 1  -x 1372 -y 1538 -Z 0 -z 20  -v circle -c black
n -t * -s 2  -x 1361 -y 1839 -Z 0 -z 20  -v circle -c black
n -t * -s 3  -x 1549 -y 1911 -Z 0 -z 20  -v circle -c black
n -t * -s 4  -x 1636 -y 1644 -Z 0 -z 20  -v circle -c black
n -t * -s 5  -x 1733 -y 1808 -Z 0 -z 20  -v circle -c black
n -t * -s 6  -x 1522 -y 1551 -Z 0 -z 20  -v circle -c black
n -t * -s 7  -x 1736 -y 1598 -Z 0 -z 20  -v circle -c black
n -t * -s 8  -x 1829 -y 1761 -Z 0 -z 20  -v circle -c black
n -t * -s 9  -x 1836 -y 1892 -Z 0 -z 20  -v circle -c black
V -t * -v 1.0a5 -a 0
W -t * -x 2453 -y 1939
A -t * -n 1 -p 0 -o 0x7fffffff -c 30 -a 1
A -t * -h 1 -m 1073741823 -s 0
n -t 1.000000 -s 2 -x 1361.000000 -y 1839.000000 -U 5.368755 -V -8.436615 -T 11.734564
n -t 1.000000 -s 5 -x 1733.000000 -y 1808.000000 -U -9.848752 -V -1.732651 -T 10.965856
+ -t 1.000000000 -s 0 -d -1 -p tcp -e 40 -c 2 -a 0 -i 0 -k AGT 
- -t 1.000000000 -s 0 -d -1 -p tcp -e 40 -c 2 -a 0 -i 0 -k AGT
h -t 1.000000000 -s 0 -d -1 -p tcp -e 40 -c 2 -a 0 -i 0 -k AGT
+ -t 1.007769418 -s 0 -d -1 -p DSR -e 32 -c 2 -a 0 -i 1 -k RTR 
- -t 1.007769418 -s 0 -d -1 -p DSR -e 32 -c 2 -a 0 -i 1 -k RTR
h -t 1.007769418 -s 0 -d -1 -p DSR -e 32 -c 2 -a 0 -i 1 -k RTR
+ -t 1.008324418 -s 0 -d -1 -p DSR -e 90 -c 2 -a 0 -i 1 -k MAC 
- -t 1.008324418 -s 0 -d -1 -p DSR -e 90 -c 2 -a 0 -i 1 -k MAC
h -t 1.008324418 -s 0 -d -1 -p DSR -e 90 -c 2 -a 0 -i 1 -k MAC
r -t 1.009045126 -s 2 -d -1 -p DSR -e 32 -c 2 -a 0 -i 1 -k MAC
r -t 1.009045196 -s 1 -d -1 -p DSR -e 32 -c 2 -a 0 -i 1 -k MAC
+ -t 1.071490642 -s 0 -d -1 -p DSR -e 32 -c 2 -a 0 -i 3 -k RTR 
- -t 1.071490642 -s 0 -d -1 -p DSR -e 32 -c 2 -a 0 -i 3 -k RTR
h -t 1.071490642 -s 0 -d -1 -p DSR -e 32 -c 2 -a 0 -i 3 -k RTR
+ -t 1.071945642 -s 0 -d -1 -p DSR -e 90 -c 2 -a 0 -i 3 -k MAC 
- -t 1.071945642 -s 0 -d -1 -p DSR -e 90 -c 2 -a 0 -i 3 -k MAC
h -t 1.071945642 -s 0 -d -1 -p DSR -e 90 -c 2 -a 0 -i 3 -k MAC
r -t 1.072666350 -s 2 -d -1 -p DSR -e 32 -c 2 -a 0 -i 3 -k MAC
r -t 1.072666420 -s 1 -d -1 -p DSR -e 32 -c 2 -a 0 -i 3 -k MAC
+ -t 1.077170939 -s 2 -d -1 -p DSR -e 48 -c 2 -a 0 -i 3 -k RTR 
- -t 1.077170939 -s 2 -d -1 -p DSR -e 48 -c 2 -a 0 -i 3 -k RTR
h -t 1.077170939 -s 2 -d -1 -p DSR -e 48 -c 2 -a 0 -i 3 -k RTR
+ -t 1.077265939 -s 2 -d -1 -p DSR -e 106 -c 2 -a 0 -i 3 -k MAC 
- -t 1.077265939 -s 2 -d -1 -p DSR -e 106 -c 2 -a 0 -i 3 -k MAC
h -t 1.077265939 -s 2 -d -1 -p DSR -e 106 -c 2 -a 0 -i 3 -k MAC
r -t 1.078114610 -s 3 -d -1 -p DSR -e 48 -c 2 -a 0 -i 3 -k MAC
r -t 1.078114647 -s 0 -d -1 -p DSR -e 48 -c 2 -a 0 -i 3 -k MAC
+ -t 1.080412630 -s 1 -d -1 -p DSR -e 48 -c 2 -a 0 -i 3 -k RTR 
- -t 1.080412630 -s 1 -d -1 -p DSR -e 48 -c 2 -a 0 -i 3 -k RTR
h -t 1.080412630 -s 1 -d -1 -p DSR -e 48 -c 2 -a 0 -i 3 -k RTR
+ -t 1.080627630 -s 1 -d -1 -p DSR -e 106 -c 2 -a 0 -i 3 -k MAC 
- -t 1.080627630 -s 1 -d -1 -p DSR -e 106 -c 2 -a 0 -i 3 -k MAC
h -t 1.080627630 -s 1 -d -1 -p DSR -e 106 -c 2 -a 0 -i 3 -k MAC
r -t 1.081476132 -s 6 -d -1 -p DSR -e 48 -c 2 -a 0 -i 3 -k MAC
r -t 1.081476408 -s 0 -d -1 -p DSR -e 48 -c 2 -a 0 -i 3 -k MAC
+ -t 1.084014032 -s 6 -d -1 -p DSR -e 68 -c 2 -a 0 -i 3 -k RTR 
- -t 1.084014032 -s 6 -d -1 -p DSR -e 68 -c 2 -a 0 -i 3 -k RTR
h -t 1.084014032 -s 6 -d -1 -p DSR -e 68 -c 2 -a 0 -i 3 -k RTR
+ -t 1.084017297 -s 3 -d -1 -p DSR -e 68 -c 2 -a 0 -i 3 -k RTR 
- -t 1.084017297 -s 3 -d -1 -p DSR -e 68 -c 2 -a 0 -i 3 -k RTR
h -t 1.084017297 -s 3 -d -1 -p DSR -e 68 -c 2 -a 0 -i 3 -k RTR
+ -t 1.084169032 -s 6 -d -1 -p DSR -e 126 -c 2 -a 0 -i 3 -k MAC 
- -t 1.084169032 -s 6 -d -1 -p DSR -e 126 -c 2 -a 0 -i 3 -k MAC
h -t 1.084169032 -s 6 -d -1 -p DSR -e 126 -c 2 -a 0 -i 3 -k MAC
r -t 1.085177523 -s 4 -d -1 -p DSR -e 68 -c 2 -a 0 -i 3 -k MAC
r -t 1.085177534 -s 1 -d -1 -p DSR -e 68 -c 2 -a 0 -i 3 -k MAC
r -t 1.085177763 -s 7 -d -1 -p DSR -e 68 -c 2 -a 0 -i 3 -k MAC
+ -t 1.085672236 -s 3 -d -1 -p DSR -e 126 -c 2 -a 0 -i 3 -k MAC 
- -t 1.085672236 -s 3 -d -1 -p DSR -e 126 -c 2 -a 0 -i 3 -k MAC
h -t 1.085672236 -s 3 -d -1 -p DSR -e 126 -c 2 -a 0 -i 3 -k MAC
+ -t 1.086018381 -s 4 -d -1 -p DSR -e 92 -c 2 -a 0 -i 3 -k RTR 
- -t 1.086018381 -s 4 -d -1 -p DSR -e 92 -c 2 -a 0 -i 3 -k RTR
h -t 1.086018381 -s 4 -d -1 -p DSR -e 92 -c 2 -a 0 -i 3 -k RTR
r -t 1.086680906 -s 2 -d -1 -p DSR -e 68 -c 2 -a 0 -i 3 -k MAC
r -t 1.086680936 -s 5 -d -1 -p DSR -e 68 -c 2 -a 0 -i 3 -k MAC
+ -t 1.087475172 -s 4 -d -1 -p DSR -e 150 -c 2 -a 0 -i 3 -k MAC 
- -t 1.087475172 -s 4 -d -1 -p DSR -e 150 -c 2 -a 0 -i 3 -k MAC
h -t 1.087475172 -s 4 -d -1 -p DSR -e 150 -c 2 -a 0 -i 3 -k MAC
r -t 1.088675539 -s 7 -d -1 -p DSR -e 92 -c 2 -a 0 -i 3 -k MAC
r -t 1.088675662 -s 6 -d -1 -p DSR -e 92 -c 2 -a 0 -i 3 -k MAC
r -t 1.088675805 -s 5 -d -1 -p DSR -e 92 -c 2 -a 0 -i 3 -k MAC
r -t 1.088675924 -s 8 -d -1 -p DSR -e 92 -c 2 -a 0 -i 3 -k MAC
+ -t 1.090693742 -s 5 -d -1 -p DSR -e 92 -c 2 -a 0 -i 3 -k RTR 
- -t 1.090693742 -s 5 -d -1 -p DSR -e 92 -c 2 -a 0 -i 3 -k RTR
h -t 1.090693742 -s 5 -d -1 -p DSR -e 92 -c 2 -a 0 -i 3 -k RTR
+ -t 1.091308742 -s 5 -d -1 -p DSR -e 150 -c 2 -a 0 -i 3 -k MAC 
- -t 1.091308742 -s 5 -d -1 -p DSR -e 150 -c 2 -a 0 -i 3 -k MAC
h -t 1.091308742 -s 5 -d -1 -p DSR -e 150 -c 2 -a 0 -i 3 -k MAC
r -t 1.092509101 -s 8 -d -1 -p DSR -e 92 -c 2 -a 0 -i 3 -k MAC
r -t 1.092509188 -s 9 -d -1 -p DSR -e 92 -c 2 -a 0 -i 3 -k MAC
r -t 1.092509376 -s 4 -d -1 -p DSR -e 92 -c 2 -a 0 -i 3 -k MAC
r -t 1.092509442 -s 7 -d -1 -p DSR -e 92 -c 2 -a 0 -i 3 -k MAC
r -t 1.092509443 -s 3 -d -1 -p DSR -e 92 -c 2 -a 0 -i 3 -k MAC
+ -t 1.093561258 -s 7 -d -1 -p DSR -e 92 -c 2 -a 0 -i 3 -k RTR 
- -t 1.093561258 -s 7 -d -1 -p DSR -e 92 -c 2 -a 0 -i 3 -k RTR
h -t 1.093561258 -s 7 -d -1 -p DSR -e 92 -c 2 -a 0 -i 3 -k RTR
+ -t 1.093976258 -s 7 -d -1 -p DSR -e 150 -c 2 -a 0 -i 3 -k MAC 
- -t 1.093976258 -s 7 -d -1 -p DSR -e 150 -c 2 -a 0 -i 3 -k MAC
h -t 1.093976258 -s 7 -d -1 -p DSR -e 150 -c 2 -a 0 -i 3 -k MAC
r -t 1.095176625 -s 4 -d -1 -p DSR -e 92 -c 2 -a 0 -i 3 -k MAC
r -t 1.095176883 -s 8 -d -1 -p DSR -e 92 -c 2 -a 0 -i 3 -k MAC
r -t 1.095176957 -s 5 -d -1 -p DSR -e 92 -c 2 -a 0 -i 3 -k MAC
r -t 1.095176988 -s 6 -d -1 -p DSR -e 92 -c 2 -a 0 -i 3 -k MAC
+ -t 1.095538800 -s 8 -d -1 -p DSR -e 120 -c 2 -a 0 -i 3 -k RTR 
- -t 1.095538800 -s 8 -d -1 -p DSR -e 120 -c 2 -a 0 -i 3 -k RTR
h -t 1.095538800 -s 8 -d -1 -p DSR -e 120 -c 2 -a 0 -i 3 -k RTR
+ -t 1.095568909 -s 9 -d 5 -p DSR -e 68 -c 2 -a 0 -i 4 -k RTR 
- -t 1.095568909 -s 9 -d 5 -p DSR -e 68 -c 2 -a 0 -i 4 -k RTR
h -t 1.095568909 -s 9 -d 5 -p DSR -e 68 -c 2 -a 0 -i 4 -k RTR
+ -t 1.095893800 -s 8 -d -1 -p DSR -e 178 -c 2 -a 0 -i 3 -k MAC 
- -t 1.095893800 -s 8 -d -1 -p DSR -e 178 -c 2 -a 0 -i 3 -k MAC
h -t 1.095893800 -s 8 -d -1 -p DSR -e 178 -c 2 -a 0 -i 3 -k MAC
r -t 1.097318159 -s 5 -d -1 -p DSR -e 120 -c 2 -a 0 -i 3 -k MAC
r -t 1.097318238 -s 9 -d -1 -p DSR -e 120 -c 2 -a 0 -i 3 -k MAC
r -t 1.097318426 -s 7 -d -1 -p DSR -e 120 -c 2 -a 0 -i 3 -k MAC
r -t 1.097318553 -s 4 -d -1 -p DSR -e 120 -c 2 -a 0 -i 3 -k MAC
+ -t 1.097468238 -s 9 -d -1 -p ARP -e 86 -c 2 -a 0 -i 0 -k MAC 
- -t 1.097468238 -s 9 -d -1 -p ARP -e 86 -c 2 -a 0 -i 0 -k MAC
h -t 1.097468238 -s 9 -d -1 -p ARP -e 86 -c 2 -a 0 -i 0 -k MAC
r -t 1.098156675 -s 8 -d -1 -p ARP -e 28 -c 2 -a 0 -i 0 -k MAC
r -t 1.098156684 -s 5 -d -1 -p ARP -e 28 -c 2 -a 0 -i 0 -k MAC
+ -t 1.098324393 -s 9 -d 8 -p DSR -e 76 -c 2 -a 0 -i 5 -k RTR 
- -t 1.098324393 -s 9 -d 8 -p DSR -e 76 -c 2 -a 0 -i 5 -k RTR
h -t 1.098324393 -s 9 -d 8 -p DSR -e 76 -c 2 -a 0 -i 5 -k RTR
+ -t 1.098519393 -s 9 -d -1 -p ARP -e 86 -c 2 -a 0 -i 0 -k MAC 
- -t 1.098519393 -s 9 -d -1 -p ARP -e 86 -c 2 -a 0 -i 0 -k MAC
h -t 1.098519393 -s 9 -d -1 -p ARP -e 86 -c 2 -a 0 -i 0 -k MAC
r -t 1.099207831 -s 8 -d -1 -p ARP -e 28 -c 2 -a 0 -i 0 -k MAC
r -t 1.099207839 -s 5 -d -1 -p ARP -e 28 -c 2 -a 0 -i 0 -k MAC
+ -t 1.099357831 -s 8 -d -1 -p RTS -e 44 -c 2 -a 0 -i 0 -k MAC 
- -t 1.099357831 -s 8 -d -1 -p RTS -e 44 -c 2 -a 0 -i 0 -k MAC
h -t 1.099357831 -s 8 -d -1 -p RTS -e 44 -c 2 -a 0 -i 0 -k MAC
r -t 1.099710268 -s 9 -d -1 -p RTS -e 44 -c 2 -a 0 -i 0 -k MAC
+ -t 1.099720268 -s 9 -d -1 -p CTS -e 38 -c 2 -a 0 -i 0 -k MAC 
- -t 1.099720268 -s 9 -d -1 -p CTS -e 38 -c 2 -a 0 -i 0 -k MAC
h -t 1.099720268 -s 9 -d -1 -p CTS -e 38 -c 2 -a 0 -i 0 -k MAC
r -t 1.100024705 -s 8 -d -1 -p CTS -e 38 -c 2 -a 0 -i 0 -k MAC
+ -t 1.100034705 -s 8 -d -1 -p ARP -e 86 -c 2 -a 0 -i 0 -k MAC 
- -t 1.100034705 -s 8 -d -1 -p ARP -e 86 -c 2 -a 0 -i 0 -k MAC
h -t 1.100034705 -s 8 -d -1 -p ARP -e 86 -c 2 -a 0 -i 0 -k MAC
r -t 1.100723143 -s 9 -d -1 -p ARP -e 28 -c 2 -a 0 -i 0 -k MAC
+ -t 1.100733143 -s 9 -d -1 -p ACK -e 38 -c 2 -a 0 -i 0 -k MAC 
- -t 1.100733143 -s 9 -d -1 -p ACK -e 38 -c 2 -a 0 -i 0 -k MAC
h -t 1.100733143 -s 9 -d -1 -p ACK -e 38 -c 2 -a 0 -i 0 -k MAC
r -t 1.101037580 -s 8 -d -1 -p ACK -e 38 -c 2 -a 0 -i 0 -k MAC
+ -t 1.101287589 -s 5 -d -1 -p RTS -e 44 -c 2 -a 0 -i 0 -k MAC 
- -t 1.101287589 -s 5 -d -1 -p RTS -e 44 -c 2 -a 0 -i 0 -k MAC
h -t 1.101287589 -s 5 -d -1 -p RTS -e 44 -c 2 -a 0 -i 0 -k MAC
r -t 1.101640035 -s 9 -d -1 -p RTS -e 44 -c 2 -a 0 -i 0 -k MAC
+ -t 1.101650035 -s 9 -d -1 -p CTS -e 38 -c 2 -a 0 -i 0 -k MAC 
- -t 1.101650035 -s 9 -d -1 -p CTS -e 38 -c 2 -a 0 -i 0 -k MAC
h -t 1.101650035 -s 9 -d -1 -p CTS -e 38 -c 2 -a 0 -i 0 -k MAC
r -t 1.101954481 -s 5 -d -1 -p CTS -e 38 -c 2 -a 0 -i 0 -k MAC
+ -t 1.101964481 -s 5 -d -1 -p ARP -e 86 -c 2 -a 0 -i 0 -k MAC 
- -t 1.101964481 -s 5 -d -1 -p ARP -e 86 -c 2 -a 0 -i 0 -k MAC
h -t 1.101964481 -s 5 -d -1 -p ARP -e 86 -c 2 -a 0 -i 0 -k MAC
r -t 1.102652927 -s 9 -d -1 -p ARP -e 28 -c 2 -a 0 -i 0 -k MAC
+ -t 1.102662927 -s 9 -d -1 -p ACK -e 38 -c 2 -a 0 -i 0 -k MAC 
- -t 1.102662927 -s 9 -d -1 -p ACK -e 38 -c 2 -a 0 -i 0 -k MAC
h -t 1.102662927 -s 9 -d -1 -p ACK -e 38 -c 2 -a 0 -i 0 -k MAC
r -t 1.102967373 -s 5 -d -1 -p ACK -e 38 -c 2 -a 0 -i 0 -k MAC
+ -t 1.103056927 -s 9 -d -1 -p RTS -e 44 -c 2 -a 0 -i 0 -k MAC 
- -t 1.103056927 -s 9 -d -1 -p RTS -e 44 -c 2 -a 0 -i 0 -k MAC
h -t 1.103056927 -s 9 -d -1 -p RTS -e 44 -c 2 -a 0 -i 0 -k MAC
r -t 1.103409364 -s 8 -d -1 -p RTS -e 44 -c 2 -a 0 -i 0 -k MAC
+ -t 1.103419364 -s 8 -d -1 -p CTS -e 38 -c 2 -a 0 -i 0 -k MAC 
- -t 1.103419364 -s 8 -d -1 -p CTS -e 38 -c 2 -a 0 -i 0 -k MAC
h -t 1.103419364 -s 8 -d -1 -p CTS -e 38 -c 2 -a 0 -i 0 -k MAC
r -t 1.103723801 -s 9 -d -1 -p CTS -e 38 -c 2 -a 0 -i 0 -k MAC
+ -t 1.103733801 -s 9 -d 8 -p DSR -e 134 -c 2 -a 0 -i 5 -k MAC 
- -t 1.103733801 -s 9 -d 8 -p DSR -e 134 -c 2 -a 0 -i 5 -k MAC
h -t 1.103733801 -s 9 -d 8 -p DSR -e 134 -c 2 -a 0 -i 5 -k MAC
r -t 1.104806238 -s 8 -d 8 -p DSR -e 76 -c 2 -a 0 -i 5 -k MAC
+ -t 1.104816238 -s 8 -d -1 -p ACK -e 38 -c 2 -a 0 -i 0 -k MAC 
- -t 1.104816238 -s 8 -d -1 -p ACK -e 38 -c 2 -a 0 -i 0 -k MAC
h -t 1.104816238 -s 8 -d -1 -p ACK -e 38 -c 2 -a 0 -i 0 -k MAC
+ -t 1.104831238 -s 8 -d 4 -p DSR -e 76 -c 2 -a 0 -i 5 -k RTR 
- -t 1.104831238 -s 8 -d 4 -p DSR -e 76 -c 2 -a 0 -i 5 -k RTR
h -t 1.104831238 -s 8 -d 4 -p DSR -e 76 -c 2 -a 0 -i 5 -k RTR
r -t 1.105120676 -s 9 -d -1 -p ACK -e 38 -c 2 -a 0 -i 0 -k MAC
+ -t 1.105450238 -s 8 -d -1 -p ARP -e 86 -c 2 -a 0 -i 0 -k MAC 
- -t 1.105450238 -s 8 -d -1 -p ARP -e 86 -c 2 -a 0 -i 0 -k MAC
h -t 1.105450238 -s 8 -d -1 -p ARP -e 86 -c 2 -a 0 -i 0 -k MAC
r -t 1.106138598 -s 5 -d -1 -p ARP -e 28 -c 2 -a 0 -i 0 -k MAC
r -t 1.106138676 -s 9 -d -1 -p ARP -e 28 -c 2 -a 0 -i 0 -k MAC
r -t 1.106138864 -s 7 -d -1 -p ARP -e 28 -c 2 -a 0 -i 0 -k MAC
r -t 1.106138991 -s 4 -d -1 -p ARP -e 28 -c 2 -a 0 -i 0 -k MAC
+ -t 1.106193991 -s 4 -d -1 -p RTS -e 44 -c 2 -a 0 -i 0 -k MAC 
- -t 1.106193991 -s 4 -d -1 -p RTS -e 44 -c 2 -a 0 -i 0 -k MAC
h -t 1.106193991 -s 4 -d -1 -p RTS -e 44 -c 2 -a 0 -i 0 -k MAC
r -t 1.106546743 -s 8 -d -1 -p RTS -e 44 -c 2 -a 0 -i 0 -k MAC
+ -t 1.106556743 -s 8 -d -1 -p CTS -e 38 -c 2 -a 0 -i 0 -k MAC 
- -t 1.106556743 -s 8 -d -1 -p CTS -e 38 -c 2 -a 0 -i 0 -k MAC
h -t 1.106556743 -s 8 -d -1 -p CTS -e 38 -c 2 -a 0 -i 0 -k MAC
r -t 1.106861495 -s 4 -d -1 -p CTS -e 38 -c 2 -a 0 -i 0 -k MAC
+ -t 1.106871495 -s 4 -d -1 -p ARP -e 86 -c 2 -a 0 -i 0 -k MAC 
- -t 1.106871495 -s 4 -d -1 -p ARP -e 86 -c 2 -a 0 -i 0 -k MAC
h -t 1.106871495 -s 4 -d -1 -p ARP -e 86 -c 2 -a 0 -i 0 -k MAC
r -t 1.107560248 -s 8 -d -1 -p ARP -e 28 -c 2 -a 0 -i 0 -k MAC
+ -t 1.107570248 -s 8 -d -1 -p ACK -e 38 -c 2 -a 0 -i 0 -k MAC 
- -t 1.107570248 -s 8 -d -1 -p ACK -e 38 -c 2 -a 0 -i 0 -k MAC
h -t 1.107570248 -s 8 -d -1 -p ACK -e 38 -c 2 -a 0 -i 0 -k MAC
r -t 1.107875000 -s 4 -d -1 -p ACK -e 38 -c 2 -a 0 -i 0 -k MAC
+ -t 1.108134557 -s 9 -d -1 -p RTS -e 44 -c 2 -a 0 -i 0 -k MAC 
- -t 1.108134557 -s 9 -d -1 -p RTS -e 44 -c 2 -a 0 -i 0 -k MAC
h -t 1.108134557 -s 9 -d -1 -p RTS -e 44 -c 2 -a 0 -i 0 -k MAC
r -t 1.108487004 -s 5 -d -1 -p RTS -e 44 -c 2 -a 0 -i 0 -k MAC
+ -t 1.108497004 -s 5 -d -1 -p CTS -e 38 -c 2 -a 0 -i 0 -k MAC 
- -t 1.108497004 -s 5 -d -1 -p CTS -e 38 -c 2 -a 0 -i 0 -k MAC
h -t 1.108497004 -s 5 -d -1 -p CTS -e 38 -c 2 -a 0 -i 0 -k MAC
r -t 1.108801450 -s 9 -d -1 -p CTS -e 38 -c 2 -a 0 -i 0 -k MAC
+ -t 1.108811450 -s 9 -d 5 -p DSR -e 126 -c 2 -a 0 -i 4 -k MAC 
- -t 1.108811450 -s 9 -d 5 -p DSR -e 126 -c 2 -a 0 -i 4 -k MAC
h -t 1.108811450 -s 9 -d 5 -p DSR -e 126 -c 2 -a 0 -i 4 -k MAC
r -t 1.109819896 -s 5 -d 5 -p DSR -e 68 -c 2 -a 0 -i 4 -k MAC
+ -t 1.109829896 -s 5 -d -1 -p ACK -e 38 -c 2 -a 0 -i 0 -k MAC 
- -t 1.109829896 -s 5 -d -1 -p ACK -e 38 -c 2 -a 0 -i 0 -k MAC
h -t 1.109829896 -s 5 -d -1 -p ACK -e 38 -c 2 -a 0 -i 0 -k MAC
+ -t 1.109844896 -s 5 -d 3 -p DSR -e 68 -c 2 -a 0 -i 4 -k RTR 
- -t 1.109844896 -s 5 -d 3 -p DSR -e 68 -c 2 -a 0 -i 4 -k RTR
h -t 1.109844896 -s 5 -d 3 -p DSR -e 68 -c 2 -a 0 -i 4 -k RTR
r -t 1.110134342 -s 9 -d -1 -p ACK -e 38 -c 2 -a 0 -i 0 -k MAC
+ -t 1.110224255 -s 8 -d -1 -p RTS -e 44 -c 2 -a 0 -i 0 -k MAC 
- -t 1.110224255 -s 8 -d -1 -p RTS -e 44 -c 2 -a 0 -i 0 -k MAC
h -t 1.110224255 -s 8 -d -1 -p RTS -e 44 -c 2 -a 0 -i 0 -k MAC
r -t 1.110577008 -s 4 -d -1 -p RTS -e 44 -c 2 -a 0 -i 0 -k MAC
+ -t 1.110587008 -s 4 -d -1 -p CTS -e 38 -c 2 -a 0 -i 0 -k MAC 
- -t 1.110587008 -s 4 -d -1 -p CTS -e 38 -c 2 -a 0 -i 0 -k MAC
h -t 1.110587008 -s 4 -d -1 -p CTS -e 38 -c 2 -a 0 -i 0 -k MAC
r -t 1.110891760 -s 8 -d -1 -p CTS -e 38 -c 2 -a 0 -i 0 -k MAC
+ -t 1.110901760 -s 8 -d 4 -p DSR -e 134 -c 2 -a 0 -i 5 -k MAC 
- -t 1.110901760 -s 8 -d 4 -p DSR -e 134 -c 2 -a 0 -i 5 -k MAC
h -t 1.110901760 -s 8 -d 4 -p DSR -e 134 -c 2 -a 0 -i 5 -k MAC
r -t 1.111974512 -s 4 -d 4 -p DSR -e 76 -c 2 -a 0 -i 5 -k MAC
+ -t 1.111984512 -s 4 -d -1 -p ACK -e 38 -c 2 -a 0 -i 0 -k MAC 
- -t 1.111984512 -s 4 -d -1 -p ACK -e 38 -c 2 -a 0 -i 0 -k MAC
h -t 1.111984512 -s 4 -d -1 -p ACK -e 38 -c 2 -a 0 -i 0 -k MAC
+ -t 1.111999512 -s 4 -d 6 -p DSR -e 76 -c 2 -a 0 -i 5 -k RTR 
- -t 1.111999512 -s 4 -d 6 -p DSR -e 76 -c 2 -a 0 -i 5 -k RTR
h -t 1.111999512 -s 4 -d 6 -p DSR -e 76 -c 2 -a 0 -i 5 -k RTR
r -t 1.112289264 -s 8 -d -1 -p ACK -e 38 -c 2 -a 0 -i 0 -k MAC
+ -t 1.112379145 -s 5 -d -1 -p ARP -e 86 -c 2 -a 0 -i 0 -k MAC 
- -t 1.112379145 -s 5 -d -1 -p ARP -e 86 -c 2 -a 0 -i 0 -k MAC
h -t 1.112379145 -s 5 -d -1 -p ARP -e 86 -c 2 -a 0 -i 0 -k MAC
r -t 1.113067504 -s 8 -d -1 -p ARP -e 28 -c 2 -a 0 -i 0 -k MAC
r -t 1.113067591 -s 9 -d -1 -p ARP -e 28 -c 2 -a 0 -i 0 -k MAC
r -t 1.113067778 -s 4 -d -1 -p ARP -e 28 -c 2 -a 0 -i 0 -k MAC
r -t 1.113067844 -s 7 -d -1 -p ARP -e 28 -c 2 -a 0 -i 0 -k MAC
r -t 1.113067845 -s 3 -d -1 -p ARP -e 28 -c 2 -a 0 -i 0 -k MAC
+ -t 1.113602845 -s 3 -d -1 -p RTS -e 44 -c 2 -a 0 -i 0 -k MAC 
- -t 1.113602845 -s 3 -d -1 -p RTS -e 44 -c 2 -a 0 -i 0 -k MAC
h -t 1.113602845 -s 3 -d -1 -p RTS -e 44 -c 2 -a 0 -i 0 -k MAC
r -t 1.113955545 -s 5 -d -1 -p RTS -e 44 -c 2 -a 0 -i 0 -k MAC
+ -t 1.113965545 -s 5 -d -1 -p CTS -e 38 -c 2 -a 0 -i 0 -k MAC 
- -t 1.113965545 -s 5 -d -1 -p CTS -e 38 -c 2 -a 0 -i 0 -k MAC
h -t 1.113965545 -s 5 -d -1 -p CTS -e 38 -c 2 -a 0 -i 0 -k MAC
r -t 1.114270245 -s 3 -d -1 -p CTS -e 38 -c 2 -a 0 -i 0 -k MAC
+ -t 1.114280245 -s 3 -d -1 -p ARP -e 86 -c 2 -a 0 -i 0 -k MAC 
- -t 1.114280245 -s 3 -d -1 -p ARP -e 86 -c 2 -a 0 -i 0 -k MAC
h -t 1.114280245 -s 3 -d -1 -p ARP -e 86 -c 2 -a 0 -i 0 -k MAC
r -t 1.114968945 -s 5 -d -1 -p ARP -e 28 -c 2 -a 0 -i 0 -k MAC
+ -t 1.114978945 -s 5 -d -1 -p ACK -e 38 -c 2 -a 0 -i 0 -k MAC 
- -t 1.114978945 -s 5 -d -1 -p ACK -e 38 -c 2 -a 0 -i 0 -k MAC
h -t 1.114978945 -s 5 -d -1 -p ACK -e 38 -c 2 -a 0 -i 0 -k MAC
r -t 1.115283645 -s 3 -d -1 -p ACK -e 38 -c 2 -a 0 -i 0 -k MAC
+ -t 1.115332945 -s 5 -d -1 -p RTS -e 44 -c 2 -a 0 -i 0 -k MAC 
- -t 1.115332945 -s 5 -d -1 -p RTS -e 44 -c 2 -a 0 -i 0 -k MAC
h -t 1.115332945 -s 5 -d -1 -p RTS -e 44 -c 2 -a 0 -i 0 -k MAC
r -t 1.115685645 -s 3 -d -1 -p RTS -e 44 -c 2 -a 0 -i 0 -k MAC
+ -t 1.115695645 -s 3 -d -1 -p CTS -e 38 -c 2 -a 0 -i 0 -k MAC 
- -t 1.115695645 -s 3 -d -1 -p CTS -e 38 -c 2 -a 0 -i 0 -k MAC
h -t 1.115695645 -s 3 -d -1 -p CTS -e 38 -c 2 -a 0 -i 0 -k MAC
r -t 1.116000345 -s 5 -d -1 -p CTS -e 38 -c 2 -a 0 -i 0 -k MAC
+ -t 1.116010345 -s 5 -d 3 -p DSR -e 126 -c 2 -a 0 -i 4 -k MAC 
- -t 1.116010345 -s 5 -d 3 -p DSR -e 126 -c 2 -a 0 -i 4 -k MAC
h -t 1.116010345 -s 5 -d 3 -p DSR -e 126 -c 2 -a 0 -i 4 -k MAC
r -t 1.117019044 -s 3 -d 3 -p DSR -e 68 -c 2 -a 0 -i 4 -k MAC
+ -t 1.117029044 -s 3 -d -1 -p ACK -e 38 -c 2 -a 0 -i 0 -k MAC 
- -t 1.117029044 -s 3 -d -1 -p ACK -e 38 -c 2 -a 0 -i 0 -k MAC
h -t 1.117029044 -s 3 -d -1 -p ACK -e 38 -c 2 -a 0 -i 0 -k MAC
+ -t 1.117044044 -s 3 -d 2 -p DSR -e 68 -c 2 -a 0 -i 4 -k RTR 
- -t 1.117044044 -s 3 -d 2 -p DSR -e 68 -c 2 -a 0 -i 4 -k RTR
h -t 1.117044044 -s 3 -d 2 -p DSR -e 68 -c 2 -a 0 -i 4 -k RTR
r -t 1.117333744 -s 5 -d -1 -p ACK -e 38 -c 2 -a 0 -i 0 -k MAC
+ -t 1.117783044 -s 3 -d -1 -p ARP -e 86 -c 2 -a 0 -i 0 -k MAC 
- -t 1.117783044 -s 3 -d -1 -p ARP -e 86 -c 2 -a 0 -i 0 -k MAC
h -t 1.117783044 -s 3 -d -1 -p ARP -e 86 -c 2 -a 0 -i 0 -k MAC
r -t 1.118471715 -s 2 -d -1 -p ARP -e 28 -c 2 -a 0 -i 0 -k MAC
r -t 1.118471744 -s 5 -d -1 -p ARP -e 28 -c 2 -a 0 -i 0 -k MAC
+ -t 1.118826715 -s 2 -d -1 -p RTS -e 44 -c 2 -a 0 -i 0 -k MAC 
- -t 1.118826715 -s 2 -d -1 -p RTS -e 44 -c 2 -a 0 -i 0 -k MAC
h -t 1.118826715 -s 2 -d -1 -p RTS -e 44 -c 2 -a 0 -i 0 -k MAC
r -t 1.119179385 -s 3 -d -1 -p RTS -e 44 -c 2 -a 0 -i 0 -k MAC
+ -t 1.119189385 -s 3 -d -1 -p CTS -e 38 -c 2 -a 0 -i 0 -k MAC 
- -t 1.119189385 -s 3 -d -1 -p CTS -e 38 -c 2 -a 0 -i 0 -k MAC
h -t 1.119189385 -s 3 -d -1 -p CTS -e 38 -c 2 -a 0 -i 0 -k MAC
r -t 1.119494055 -s 2 -d -1 -p CTS -e 38 -c 2 -a 0 -i 0 -k MAC
+ -t 1.119504055 -s 2 -d -1 -p ARP -e 86 -c 2 -a 0 -i 0 -k MAC 
- -t 1.119504055 -s 2 -d -1 -p ARP -e 86 -c 2 -a 0 -i 0 -k MAC
h -t 1.119504055 -s 2 -d -1 -p ARP -e 86 -c 2 -a 0 -i 0 -k MAC
r -t 1.120192726 -s 3 -d -1 -p ARP -e 28 -c 2 -a 0 -i 0 -k MAC
+ -t 1.120202726 -s 3 -d -1 -p ACK -e 38 -c 2 -a 0 -i 0 -k MAC 
- -t 1.120202726 -s 3 -d -1 -p ACK -e 38 -c 2 -a 0 -i 0 -k MAC
h -t 1.120202726 -s 3 -d -1 -p ACK -e 38 -c 2 -a 0 -i 0 -k MAC
r -t 1.120507396 -s 2 -d -1 -p ACK -e 38 -c 2 -a 0 -i 0 -k MAC
+ -t 1.120836726 -s 3 -d -1 -p RTS -e 44 -c 2 -a 0 -i 0 -k MAC 
- -t 1.120836726 -s 3 -d -1 -p RTS -e 44 -c 2 -a 0 -i 0 -k MAC
h -t 1.120836726 -s 3 -d -1 -p RTS -e 44 -c 2 -a 0 -i 0 -k MAC
r -t 1.121189396 -s 2 -d -1 -p RTS -e 44 -c 2 -a 0 -i 0 -k MAC
+ -t 1.121199396 -s 2 -d -1 -p CTS -e 38 -c 2 -a 0 -i 0 -k MAC 
- -t 1.121199396 -s 2 -d -1 -p CTS -e 38 -c 2 -a 0 -i 0 -k MAC
h -t 1.121199396 -s 2 -d -1 -p CTS -e 38 -c 2 -a 0 -i 0 -k MAC
r -t 1.121504066 -s 3 -d -1 -p CTS -e 38 -c 2 -a 0 -i 0 -k MAC
+ -t 1.121514066 -s 3 -d 2 -p DSR -e 126 -c 2 -a 0 -i 4 -k MAC 
- -t 1.121514066 -s 3 -d 2 -p DSR -e 126 -c 2 -a 0 -i 4 -k MAC
h -t 1.121514066 -s 3 -d 2 -p DSR -e 126 -c 2 -a 0 -i 4 -k MAC
r -t 1.122522736 -s 2 -d 2 -p DSR -e 68 -c 2 -a 0 -i 4 -k MAC
+ -t 1.122532736 -s 2 -d -1 -p ACK -e 38 -c 2 -a 0 -i 0 -k MAC 
- -t 1.122532736 -s 2 -d -1 -p ACK -e 38 -c 2 -a 0 -i 0 -k MAC
h -t 1.122532736 -s 2 -d -1 -p ACK -e 38 -c 2 -a 0 -i 0 -k MAC
+ -t 1.122547736 -s 2 -d 0 -p DSR -e 68 -c 2 -a 0 -i 4 -k RTR 
- -t 1.122547736 -s 2 -d 0 -p DSR -e 68 -c 2 -a 0 -i 4 -k RTR
h -t 1.122547736 -s 2 -d 0 -p DSR -e 68 -c 2 -a 0 -i 4 -k RTR
r -t 1.122837407 -s 3 -d -1 -p ACK -e 38 -c 2 -a 0 -i 0 -k MAC
+ -t 1.122986736 -s 2 -d -1 -p ARP -e 86 -c 2 -a 0 -i 0 -k MAC 
- -t 1.122986736 -s 2 -d -1 -p ARP -e 86 -c 2 -a 0 -i 0 -k MAC
h -t 1.122986736 -s 2 -d -1 -p ARP -e 86 -c 2 -a 0 -i 0 -k MAC
r -t 1.123675407 -s 3 -d -1 -p ARP -e 28 -c 2 -a 0 -i 0 -k MAC
r -t 1.123675444 -s 0 -d -1 -p ARP -e 28 -c 2 -a 0 -i 0 -k MAC
+ -t 1.123990444 -s 0 -d -1 -p RTS -e 44 -c 2 -a 0 -i 0 -k MAC 
- -t 1.123990444 -s 0 -d -1 -p RTS -e 44 -c 2 -a 0 -i 0 -k MAC
h -t 1.123990444 -s 0 -d -1 -p RTS -e 44 -c 2 -a 0 -i 0 -k MAC
r -t 1.124343152 -s 2 -d -1 -p RTS -e 44 -c 2 -a 0 -i 0 -k MAC
+ -t 1.124353152 -s 2 -d -1 -p CTS -e 38 -c 2 -a 0 -i 0 -k MAC 
- -t 1.124353152 -s 2 -d -1 -p CTS -e 38 -c 2 -a 0 -i 0 -k MAC
h -t 1.124353152 -s 2 -d -1 -p CTS -e 38 -c 2 -a 0 -i 0 -k MAC
r -t 1.124657860 -s 0 -d -1 -p CTS -e 38 -c 2 -a 0 -i 0 -k MAC
+ -t 1.124667860 -s 0 -d -1 -p ARP -e 86 -c 2 -a 0 -i 0 -k MAC 
- -t 1.124667860 -s 0 -d -1 -p ARP -e 86 -c 2 -a 0 -i 0 -k MAC
h -t 1.124667860 -s 0 -d -1 -p ARP -e 86 -c 2 -a 0 -i 0 -k MAC
r -t 1.125356567 -s 2 -d -1 -p ARP -e 28 -c 2 -a 0 -i 0 -k MAC
+ -t 1.125366567 -s 2 -d -1 -p ACK -e 38 -c 2 -a 0 -i 0 -k MAC 
- -t 1.125366567 -s 2 -d -1 -p ACK -e 38 -c 2 -a 0 -i 0 -k MAC
h -t 1.125366567 -s 2 -d -1 -p ACK -e 38 -c 2 -a 0 -i 0 -k MAC
r -t 1.125671275 -s 0 -d -1 -p ACK -e 38 -c 2 -a 0 -i 0 -k MAC
+ -t 1.126040567 -s 2 -d -1 -p RTS -e 44 -c 2 -a 0 -i 0 -k MAC 
- -t 1.126040567 -s 2 -d -1 -p RTS -e 44 -c 2 -a 0 -i 0 -k MAC
h -t 1.126040567 -s 2 -d -1 -p RTS -e 44 -c 2 -a 0 -i 0 -k MAC
r -t 1.126393275 -s 0 -d -1 -p RTS -e 44 -c 2 -a 0 -i 0 -k MAC
+ -t 1.126403275 -s 0 -d -1 -p CTS -e 38 -c 2 -a 0 -i 0 -k MAC 
- -t 1.126403275 -s 0 -d -1 -p CTS -e 38 -c 2 -a 0 -i 0 -k MAC
h -t 1.126403275 -s 0 -d -1 -p CTS -e 38 -c 2 -a 0 -i 0 -k MAC
r -t 1.126707983 -s 2 -d -1 -p CTS -e 38 -c 2 -a 0 -i 0 -k MAC
+ -t 1.126717983 -s 2 -d 0 -p DSR -e 126 -c 2 -a 0 -i 4 -k MAC 
- -t 1.126717983 -s 2 -d 0 -p DSR -e 126 -c 2 -a 0 -i 4 -k MAC
h -t 1.126717983 -s 2 -d 0 -p DSR -e 126 -c 2 -a 0 -i 4 -k MAC
r -t 1.127726690 -s 0 -d 0 -p DSR -e 68 -c 2 -a 0 -i 4 -k MAC
+ -t 1.127736690 -s 0 -d -1 -p ACK -e 38 -c 2 -a 0 -i 0 -k MAC 
- -t 1.127736690 -s 0 -d -1 -p ACK -e 38 -c 2 -a 0 -i 0 -k MAC
h -t 1.127736690 -s 0 -d -1 -p ACK -e 38 -c 2 -a 0 -i 0 -k MAC
+ -t 1.127751690 -s 0 -d 2 -p tcp -e 88 -c 2 -a 0 -i 0 -k RTR 
- -t 1.127751690 -s 0 -d 2 -p tcp -e 88 -c 2 -a 0 -i 0 -k RTR
h -t 1.127751690 -s 0 -d 2 -p tcp -e 88 -c 2 -a 0 -i 0 -k RTR
r -t 1.128041398 -s 2 -d -1 -p ACK -e 38 -c 2 -a 0 -i 0 -k MAC
+ -t 1.128130690 -s 0 -d -1 -p RTS -e 44 -c 2 -a 0 -i 0 -k MAC 
- -t 1.128130690 -s 0 -d -1 -p RTS -e 44 -c 2 -a 0 -i 0 -k MAC
h -t 1.128130690 -s 0 -d -1 -p RTS -e 44 -c 2 -a 0 -i 0 -k MAC
r -t 1.128483398 -s 2 -d -1 -p RTS -e 44 -c 2 -a 0 -i 0 -k MAC
+ -t 1.128493398 -s 2 -d -1 -p CTS -e 38 -c 2 -a 0 -i 0 -k MAC 
- -t 1.128493398 -s 2 -d -1 -p CTS -e 38 -c 2 -a 0 -i 0 -k MAC
h -t 1.128493398 -s 2 -d -1 -p CTS -e 38 -c 2 -a 0 -i 0 -k MAC
r -t 1.128798106 -s 0 -d -1 -p CTS -e 38 -c 2 -a 0 -i 0 -k MAC
+ -t 1.128808106 -s 0 -d 2 -p tcp -e 146 -c 2 -a 0 -i 0 -k MAC 
- -t 1.128808106 -s 0 -d 2 -p tcp -e 146 -c 2 -a 0 -i 0 -k MAC
h -t 1.128808106 -s 0 -d 2 -p tcp -e 146 -c 2 -a 0 -i 0 -k MAC
r -t 1.129976814 -s 2 -d 2 -p tcp -e 88 -c 2 -a 0 -i 0 -k MAC
+ -t 1.129986814 -s 2 -d -1 -p ACK -e 38 -c 2 -a 0 -i 0 -k MAC 
- -t 1.129986814 -s 2 -d -1 -p ACK -e 38 -c 2 -a 0 -i 0 -k MAC
h -t 1.129986814 -s 2 -d -1 -p ACK -e 38 -c 2 -a 0 -i 0 -k MAC
+ -t 1.130001814 -s 2 -d 3 -p tcp -e 88 -c 2 -a 0 -i 0 -k RTR 
- -t 1.130001814 -s 2 -d 3 -p tcp -e 88 -c 2 -a 0 -i 0 -k RTR
h -t 1.130001814 -s 2 -d 3 -p tcp -e 88 -c 2 -a 0 -i 0 -k RTR
r -t 1.130291521 -s 0 -d -1 -p ACK -e 38 -c 2 -a 0 -i 0 -k MAC
+ -t 1.130725933 -s 4 -d -1 -p ARP -e 86 -c 2 -a 0 -i 0 -k MAC 
- -t 1.130725933 -s 4 -d -1 -p ARP -e 86 -c 2 -a 0 -i 0 -k MAC
h -t 1.130725933 -s 4 -d -1 -p ARP -e 86 -c 2 -a 0 -i 0 -k MAC
r -t 1.131414300 -s 7 -d -1 -p ARP -e 28 -c 2 -a 0 -i 0 -k MAC
r -t 1.131414424 -s 6 -d -1 -p ARP -e 28 -c 2 -a 0 -i 0 -k MAC
r -t 1.131414566 -s 5 -d -1 -p ARP -e 28 -c 2 -a 0 -i 0 -k MAC
r -t 1.131414686 -s 8 -d -1 -p ARP -e 28 -c 2 -a 0 -i 0 -k MAC
+ -t 1.131609424 -s 6 -d -1 -p RTS -e 44 -c 2 -a 0 -i 0 -k MAC 
- -t 1.131609424 -s 6 -d -1 -p RTS -e 44 -c 2 -a 0 -i 0 -k MAC
h -t 1.131609424 -s 6 -d -1 -p RTS -e 44 -c 2 -a 0 -i 0 -k MAC
r -t 1.131961914 -s 4 -d -1 -p RTS -e 44 -c 2 -a 0 -i 0 -k MAC
+ -t 1.131971914 -s 4 -d -1 -p CTS -e 38 -c 2 -a 0 -i 0 -k MAC 
- -t 1.131971914 -s 4 -d -1 -p CTS -e 38 -c 2 -a 0 -i 0 -k MAC
h -t 1.131971914 -s 4 -d -1 -p CTS -e 38 -c 2 -a 0 -i 0 -k MAC
r -t 1.132276405 -s 6 -d -1 -p CTS -e 38 -c 2 -a 0 -i 0 -k MAC
+ -t 1.132286405 -s 6 -d -1 -p ARP -e 86 -c 2 -a 0 -i 0 -k MAC 
- -t 1.132286405 -s 6 -d -1 -p ARP -e 86 -c 2 -a 0 -i 0 -k MAC
h -t 1.132286405 -s 6 -d -1 -p ARP -e 86 -c 2 -a 0 -i 0 -k MAC
r -t 1.132974895 -s 4 -d -1 -p ARP -e 28 -c 2 -a 0 -i 0 -k MAC
+ -t 1.132984895 -s 4 -d -1 -p ACK -e 38 -c 2 -a 0 -i 0 -k MAC 
- -t 1.132984895 -s 4 -d -1 -p ACK -e 38 -c 2 -a 0 -i 0 -k MAC
h -t 1.132984895 -s 4 -d -1 -p ACK -e 38 -c 2 -a 0 -i 0 -k MAC
r -t 1.133289385 -s 6 -d -1 -p ACK -e 38 -c 2 -a 0 -i 0 -k MAC
+ -t 1.133358895 -s 4 -d -1 -p RTS -e 44 -c 2 -a 0 -i 0 -k MAC 
- -t 1.133358895 -s 4 -d -1 -p RTS -e 44 -c 2 -a 0 -i 0 -k MAC
h -t 1.133358895 -s 4 -d -1 -p RTS -e 44 -c 2 -a 0 -i 0 -k MAC
r -t 1.133711385 -s 6 -d -1 -p RTS -e 44 -c 2 -a 0 -i 0 -k MAC
+ -t 1.133721385 -s 6 -d -1 -p CTS -e 38 -c 2 -a 0 -i 0 -k MAC 
- -t 1.133721385 -s 6 -d -1 -p CTS -e 38 -c 2 -a 0 -i 0 -k MAC
h -t 1.133721385 -s 6 -d -1 -p CTS -e 38 -c 2 -a 0 -i 0 -k MAC
r -t 1.134025876 -s 4 -d -1 -p CTS -e 38 -c 2 -a 0 -i 0 -k MAC
+ -t 1.134035876 -s 4 -d 6 -p DSR -e 134 -c 2 -a 0 -i 5 -k MAC 
- -t 1.134035876 -s 4 -d 6 -p DSR -e 134 -c 2 -a 0 -i 5 -k MAC
h -t 1.134035876 -s 4 -d 6 -p DSR -e 134 -c 2 -a 0 -i 5 -k MAC
r -t 1.135108366 -s 6 -d 6 -p DSR -e 76 -c 2 -a 0 -i 5 -k MAC
+ -t 1.135118366 -s 6 -d -1 -p ACK -e 38 -c 2 -a 0 -i 0 -k MAC 
- -t 1.135118366 -s 6 -d -1 -p ACK -e 38 -c 2 -a 0 -i 0 -k MAC
h -t 1.135118366 -s 6 -d -1 -p ACK -e 38 -c 2 -a 0 -i 0 -k MAC
+ -t 1.135133366 -s 6 -d 1 -p DSR -e 76 -c 2 -a 0 -i 5 -k RTR 
- -t 1.135133366 -s 6 -d 1 -p DSR -e 76 -c 2 -a 0 -i 5 -k RTR
h -t 1.135133366 -s 6 -d 1 -p DSR -e 76 -c 2 -a 0 -i 5 -k RTR
r -t 1.135422857 -s 4 -d -1 -p ACK -e 38 -c 2 -a 0 -i 0 -k MAC
+ -t 1.135877461 -s 2 -d -1 -p RTS -e 44 -c 2 -a 0 -i 0 -k MAC 
- -t 1.135877461 -s 2 -d -1 -p RTS -e 44 -c 2 -a 0 -i 0 -k MAC
h -t 1.135877461 -s 2 -d -1 -p RTS -e 44 -c 2 -a 0 -i 0 -k MAC
r -t 1.136230132 -s 3 -d -1 -p RTS -e 44 -c 2 -a 0 -i 0 -k MAC
+ -t 1.136240132 -s 3 -d -1 -p CTS -e 38 -c 2 -a 0 -i 0 -k MAC 
- -t 1.136240132 -s 3 -d -1 -p CTS -e 38 -c 2 -a 0 -i 0 -k MAC
h -t 1.136240132 -s 3 -d -1 -p CTS -e 38 -c 2 -a 0 -i 0 -k MAC
r -t 1.136544802 -s 2 -d -1 -p CTS -e 38 -c 2 -a 0 -i 0 -k MAC
+ -t 1.136554802 -s 2 -d 3 -p tcp -e 146 -c 2 -a 0 -i 0 -k MAC 
- -t 1.136554802 -s 2 -d 3 -p tcp -e 146 -c 2 -a 0 -i 0 -k MAC
h -t 1.136554802 -s 2 -d 3 -p tcp -e 146 -c 2 -a 0 -i 0 -k MAC
r -t 1.137723472 -s 3 -d 3 -p tcp -e 88 -c 2 -a 0 -i 0 -k MAC
+ -t 1.137733472 -s 3 -d -1 -p ACK -e 38 -c 2 -a 0 -i 0 -k MAC 
- -t 1.137733472 -s 3 -d -1 -p ACK -e 38 -c 2 -a 0 -i 0 -k MAC
h -t 1.137733472 -s 3 -d -1 -p ACK -e 38 -c 2 -a 0 -i 0 -k MAC
+ -t 1.137748472 -s 3 -d 5 -p tcp -e 88 -c 2 -a 0 -i 0 -k RTR 
- -t 1.137748472 -s 3 -d 5 -p tcp -e 88 -c 2 -a 0 -i 0 -k RTR
h -t 1.137748472 -s 3 -d 5 -p tcp -e 88 -c 2 -a 0 -i 0 -k RTR
r -t 1.138038142 -s 2 -d -1 -p ACK -e 38 -c 2 -a 0 -i 0 -k MAC
+ -t 1.138552675 -s 6 -d -1 -p ARP -e 86 -c 2 -a 0 -i 0 -k MAC 
- -t 1.138552675 -s 6 -d -1 -p ARP -e 86 -c 2 -a 0 -i 0 -k MAC
h -t 1.138552675 -s 6 -d -1 -p ARP -e 86 -c 2 -a 0 -i 0 -k MAC
r -t 1.139241166 -s 4 -d -1 -p ARP -e 28 -c 2 -a 0 -i 0 -k MAC
r -t 1.139241177 -s 1 -d -1 -p ARP -e 28 -c 2 -a 0 -i 0 -k MAC
r -t 1.139241406 -s 7 -d -1 -p ARP -e 28 -c 2 -a 0 -i 0 -k MAC
+ -t 1.139676177 -s 1 -d -1 -p RTS -e 44 -c 2 -a 0 -i 0 -k MAC 
- -t 1.139676177 -s 1 -d -1 -p RTS -e 44 -c 2 -a 0 -i 0 -k MAC
h -t 1.139676177 -s 1 -d -1 -p RTS -e 44 -c 2 -a 0 -i 0 -k MAC
r -t 1.140028679 -s 6 -d -1 -p RTS -e 44 -c 2 -a 0 -i 0 -k MAC
+ -t 1.140038679 -s 6 -d -1 -p CTS -e 38 -c 2 -a 0 -i 0 -k MAC 
- -t 1.140038679 -s 6 -d -1 -p CTS -e 38 -c 2 -a 0 -i 0 -k MAC
h -t 1.140038679 -s 6 -d -1 -p CTS -e 38 -c 2 -a 0 -i 0 -k MAC
r -t 1.140343181 -s 1 -d -1 -p CTS -e 38 -c 2 -a 0 -i 0 -k MAC
+ -t 1.140353181 -s 1 -d -1 -p ARP -e 86 -c 2 -a 0 -i 0 -k MAC 
- -t 1.140353181 -s 1 -d -1 -p ARP -e 86 -c 2 -a 0 -i 0 -k MAC
h -t 1.140353181 -s 1 -d -1 -p ARP -e 86 -c 2 -a 0 -i 0 -k MAC
r -t 1.141041683 -s 6 -d -1 -p ARP -e 28 -c 2 -a 0 -i 0 -k MAC
+ -t 1.141051683 -s 6 -d -1 -p ACK -e 38 -c 2 -a 0 -i 0 -k MAC 
- -t 1.141051683 -s 6 -d -1 -p ACK -e 38 -c 2 -a 0 -i 0 -k MAC
h -t 1.141051683 -s 6 -d -1 -p ACK -e 38 -c 2 -a 0 -i 0 -k MAC
r -t 1.141356185 -s 1 -d -1 -p ACK -e 38 -c 2 -a 0 -i 0 -k MAC
+ -t 1.141565683 -s 6 -d -1 -p RTS -e 44 -c 2 -a 0 -i 0 -k MAC 
- -t 1.141565683 -s 6 -d -1 -p RTS -e 44 -c 2 -a 0 -i 0 -k MAC
h -t 1.141565683 -s 6 -d -1 -p RTS -e 44 -c 2 -a 0 -i 0 -k MAC
r -t 1.141918185 -s 1 -d -1 -p RTS -e 44 -c 2 -a 0 -i 0 -k MAC
+ -t 1.141928185 -s 1 -d -1 -p CTS -e 38 -c 2 -a 0 -i 0 -k MAC 
- -t 1.141928185 -s 1 -d -1 -p CTS -e 38 -c 2 -a 0 -i 0 -k MAC
h -t 1.141928185 -s 1 -d -1 -p CTS -e 38 -c 2 -a 0 -i 0 -k MAC
r -t 1.142232687 -s 6 -d -1 -p CTS -e 38 -c 2 -a 0 -i 0 -k MAC
+ -t 1.142242687 -s 6 -d 1 -p DSR -e 134 -c 2 -a 0 -i 5 -k MAC 
- -t 1.142242687 -s 6 -d 1 -p DSR -e 134 -c 2 -a 0 -i 5 -k MAC
h -t 1.142242687 -s 6 -d 1 -p DSR -e 134 -c 2 -a 0 -i 5 -k MAC
r -t 1.143315188 -s 1 -d 1 -p DSR -e 76 -c 2 -a 0 -i 5 -k MAC
+ -t 1.143325188 -s 1 -d -1 -p ACK -e 38 -c 2 -a 0 -i 0 -k MAC 
- -t 1.143325188 -s 1 -d -1 -p ACK -e 38 -c 2 -a 0 -i 0 -k MAC