n -t * -s 0  -x 1202 -y 1698 -Z 0 -z 20  -v circle -c black
n -t * -s 1  -x 1372 -y 1538 -Z 0 -z 20  -v circle -c black
n -t * -s 2  -x 1361 -y 1839 -Z 0 -z 20  -v circle -c black
n -t * -s 3  -x 1549 -y 1911 -Z 0 -z 20  -v circle -c black
n -t * -s 4  -x 1636 -y 1644 -Z 0 -z 20  -v circle -c black
n -t * -s 5  -x 1733 -y 1808 -Z 0 -z 20  -v circle -c black
n -t * -s 6  -x 1522 -y 1551 -Z 0 -z 20  -v circle -c black
n -t * -s 7  -x 1736 -y 1598 -Z 0 -z 20  -v circle -c black
n -t * -s 8  -x 1829 -y 1761 -Z 0 -z 20  -v circle -c black
n -t * -s 9  -x 1836 -y 1892 -Z 0 -z 20  -v circle -c black
V -t * -v 1.0a5 -a 0
W -t * -x 2453 -y 1939
A -t * -n 1 -p 0 -o 0x7fffffff -c 30 -a 1
A -t * -h 1 -m 1073741823 -s 0
+ -t 0.030050775 -s 0 -d -1 -p message -e 32 -c 2 -a 0 -i 0 -k RTR 
- -t 0.030050775 -s 0 -d -1 -p message -e 32 -c 2 -a 0 -i 0 -k RTR
h -t 0.030050775 -s 0 -d -1 -p message -e 32 -c 2 -a 0 -i 0 -k RTR
+ -t 0.030285775 -s 0 -d -1 -p message -e 90 -c 2 -a 0 -i 0 -k MAC 
- -t 0.030285775 -s 0 -d -1 -p message -e 90 -c 2 -a 0 -i 0 -k MAC
h -t 0.030285775 -s 0 -d -1 -p message -e 90 -c 2 -a 0 -i 0 -k MAC
r -t 0.031006484 -s 2 -d -1 -p message -e 32 -c 2 -a 0 -i 0 -k MAC
r -t 0.031006554 -s 1 -d -1 -p message -e 32 -c 2 -a 0 -i 0 -k MAC
r -t 0.031031484 -s 2 -d -1 -p message -e 32 -c 2 -a 0 -i 0 -k RTR
r -t 0.031031554 -s 1 -d -1 -p message -e 32 -c 2 -a 0 -i 0 -k RTR
+ -t 0.184842620 -s 1 -d -1 -p message -e 32 -c 2 -a 0 -i 1 -k RTR 
- -t 0.184842620 -s 1 -d -1 -p message -e 32 -c 2 -a 0 -i 1 -k RTR
h -t 0.184842620 -s 1 -d -1 -p message -e 32 -c 2 -a 0 -i 1 -k RTR
+ -t 0.185397620 -s 1 -d -1 -p message -e 90 -c 2 -a 0 -i 1 -k MAC 
- -t 0.185397620 -s 1 -d -1 -p message -e 90 -c 2 -a 0 -i 1 -k MAC
h -t 0.185397620 -s 1 -d -1 -p message -e 90 -c 2 -a 0 -i 1 -k MAC
r -t 0.186118121 -s 6 -d -1 -p message -e 32 -c 2 -a 0 -i 1 -k MAC
r -t 0.186118398 -s 0 -d -1 -p message -e 32 -c 2 -a 0 -i 1 -k MAC
r -t 0.186143121 -s 6 -d -1 -p message -e 32 -c 2 -a 0 -i 1 -k RTR
r -t 0.186143398 -s 0 -d -1 -p message -e 32 -c 2 -a 0 -i 1 -k RTR
+ -t 0.477273789 -s 6 -d -1 -p message -e 32 -c 2 -a 0 -i 2 -k RTR 
- -t 0.477273789 -s 6 -d -1 -p message -e 32 -c 2 -a 0 -i 2 -k RTR
h -t 0.477273789 -s 6 -d -1 -p message -e 32 -c 2 -a 0 -i 2 -k RTR
+ -t 0.477568789 -s 6 -d -1 -p message -e 90 -c 2 -a 0 -i 2 -k MAC 
- -t 0.477568789 -s 6 -d -1 -p message -e 90 -c 2 -a 0 -i 2 -k MAC
h -t 0.477568789 -s 6 -d -1 -p message -e 90 -c 2 -a 0 -i 2 -k MAC
r -t 0.478289280 -s 4 -d -1 -p message -e 32 -c 2 -a 0 -i 2 -k MAC
r -t 0.478289291 -s 1 -d -1 -p message -e 32 -c 2 -a 0 -i 2 -k MAC
r -t 0.478289520 -s 7 -d -1 -p message -e 32 -c 2 -a 0 -i 2 -k MAC
r -t 0.478314280 -s 4 -d -1 -p message -e 32 -c 2 -a 0 -i 2 -k RTR
r -t 0.478314291 -s 1 -d -1 -p message -e 32 -c 2 -a 0 -i 2 -k RTR
r -t 0.478314520 -s 7 -d -1 -p message -e 32 -c 2 -a 0 -i 2 -k RTR
+ -t 0.623344604 -s 8 -d -1 -p message -e 32 -c 2 -a 0 -i 3 -k RTR 
- -t 0.623344604 -s 8 -d -1 -p message -e 32 -c 2 -a 0 -i 3 -k RTR
h -t 0.623344604 -s 8 -d -1 -p message -e 32 -c 2 -a 0 -i 3 -k RTR
+ -t 0.623599604 -s 8 -d -1 -p message -e 90 -c 2 -a 0 -i 3 -k MAC 
- -t 0.623599604 -s 8 -d -1 -p message -e 90 -c 2 -a 0 -i 3 -k MAC
h -t 0.623599604 -s 8 -d -1 -p message -e 90 -c 2 -a 0 -i 3 -k MAC
r -t 0.624319960 -s 5 -d -1 -p message -e 32 -c 2 -a 0 -i 3 -k MAC
r -t 0.624320041 -s 9 -d -1 -p message -e 32 -c 2 -a 0 -i 3 -k MAC
r -t 0.624320229 -s 7 -d -1 -p message -e 32 -c 2 -a 0 -i 3 -k MAC
r -t 0.624320356 -s 4 -d -1 -p message -e 32 -c 2 -a 0 -i 3 -k MAC
r -t 0.624344960 -s 5 -d -1 -p message -e 32 -c 2 -a 0 -i 3 -k RTR
r -t 0.624345041 -s 9 -d -1 -p message -e 32 -c 2 -a 0 -i 3 -k RTR
r -t 0.624345229 -s 7 -d -1 -p message -e 32 -c 2 -a 0 -i 3 -k RTR
r -t 0.624345356 -s 4 -d -1 -p message -e 32 -c 2 -a 0 -i 3 -k RTR
+ -t 0.634321795 -s 4 -d -1 -p message -e 32 -c 2 -a 0 -i 4 -k RTR 
- -t 0.634321795 -s 4 -d -1 -p message -e 32 -c 2 -a 0 -i 4 -k RTR
h -t 0.634321795 -s 4 -d -1 -p message -e 32 -c 2 -a 0 -i 4 -k RTR
+ -t 0.634756795 -s 4 -d -1 -p message -e 90 -c 2 -a 0 -i 4 -k MAC 
- -t 0.634756795 -s 4 -d -1 -p message -e 90 -c 2 -a 0 -i 4 -k MAC
h -t 0.634756795 -s 4 -d -1 -p message -e 90 -c 2 -a 0 -i 4 -k MAC
r -t 0.635477162 -s 7 -d -1 -p message -e 32 -c 2 -a 0 -i 4 -k MAC
r -t 0.635477286 -s 6 -d -1 -p message -e 32 -c 2 -a 0 -i 4 -k MAC
r -t 0.635477430 -s 5 -d -1 -p message -e 32 -c 2 -a 0 -i 4 -k MAC
r -t 0.635477548 -s 8 -d -1 -p message -e 32 -c 2 -a 0 -i 4 -k MAC
r -t 0.635502162 -s 7 -d -1 -p message -e 32 -c 2 -a 0 -i 4 -k RTR
r -t 0.635502286 -s 6 -d -1 -p message -e 32 -c 2 -a 0 -i 4 -k RTR
r -t 0.635502430 -s 5 -d -1 -p message -e 32 -c 2 -a 0 -i 4 -k RTR
r -t 0.635502548 -s 8 -d -1 -p message -e 32 -c 2 -a 0 -i 4 -k RTR
+ -t 0.889120254 -s 2 -d -1 -p message -e 32 -c 2 -a 0 -i 5 -k RTR 
- -t 0.889120254 -s 2 -d -1 -p message -e 32 -c 2 -a 0 -i 5 -k RTR
h -t 0.889120254 -s 2 -d -1 -p message -e 32 -c 2 -a 0 -i 5 -k RTR
+ -t 0.889335254 -s 2 -d -1 -p message -e 90 -c 2 -a 0 -i 5 -k MAC 
- -t 0.889335254 -s 2 -d -1 -p message -e 90 -c 2 -a 0 -i 5 -k MAC
h -t 0.889335254 -s 2 -d -1 -p message -e 90 -c 2 -a 0 -i 5 -k MAC
r -t 0.890055925 -s 3 -d -1 -p message -e 32 -c 2 -a 0 -i 5 -k MAC
r -t 0.890055962 -s 0 -d -1 -p message -e 32 -c 2 -a 0 -i 5 -k MAC
r -t 0.890080925 -s 3 -d -1 -p message -e 32 -c 2 -a 0 -i 5 -k RTR
r -t 0.890080962 -s 0 -d -1 -p message -e 32 -c 2 -a 0 -i 5 -k RTR
n -t 1.000000 -s 2 -x 1361.000000 -y 1839.000000 -U 5.368755 -V -8.436615 -T 11.734564
n -t 1.000000 -s 5 -x 1733.000000 -y 1808.000000 -U -9.848752 -V -1.732651 -T 10.965856
+ -t 1.000000000 -s 0 -d -1 -p tcp -e 40 -c 2 -a 0 -i 6 -k AGT 
- -t 1.000000000 -s 0 -d -1 -p tcp -e 40 -c 2 -a 0 -i 6 -k AGT
h -t 1.000000000 -s 0 -d -1 -p tcp -e 40 -c 2 -a 0 -i 6 -k AGT
+ -t 1.281772362 -s 7 -d -1 -p message -e 32 -c 2 -a 0 -i 7 -k RTR 
- -t 1.281772362 -s 7 -d -1 -p message -e 32 -c 2 -a 0 -i 7 -k RTR
h -t 1.281772362 -s 7 -d -1 -p message -e 32 -c 2 -a 0 -i 7 -k RTR
+ -t 1.282367362 -s 7 -d -1 -p message -e 90 -c 2 -a 0 -i 7 -k MAC 
- -t 1.282367362 -s 7 -d -1 -p message -e 90 -c 2 -a 0 -i 7 -k MAC
h -t 1.282367362 -s 7 -d -1 -p message -e 90 -c 2 -a 0 -i 7 -k MAC
r -t 1.283087729 -s 4 -d -1 -p message -e 32 -c 2 -a 0 -i 7 -k MAC
r -t 1.283087987 -s 8 -d -1 -p message -e 32 -c 2 -a 0 -i 7 -k MAC
r -t 1.283088060 -s 5 -d -1 -p message -e 32 -c 2 -a 0 -i 7 -k MAC
r -t 1.283088092 -s 6 -d -1 -p message -e 32 -c 2 -a 0 -i 7 -k MAC
r -t 1.283112729 -s 4 -d -1 -p message -e 32 -c 2 -a 0 -i 7 -k RTR
r -t 1.283112987 -s 8 -d -1 -p message -e 32 -c 2 -a 0 -i 7 -k RTR
r -t 1.283113060 -s 5 -d -1 -p message -e 32 -c 2 -a 0 -i 7 -k RTR
r -t 1.283113092 -s 6 -d -1 -p message -e 32 -c 2 -a 0 -i 7 -k RTR
+ -t 1.607224385 -s 3 -d -1 -p message -e 32 -c 2 -a 0 -i 8 -k RTR 
- -t 1.607224385 -s 3 -d -1 -p message -e 32 -c 2 -a 0 -i 8 -k RTR
h -t 1.607224385 -s 3 -d -1 -p message -e 32 -c 2 -a 0 -i 8 -k RTR
+ -t 1.607359385 -s 3 -d -1 -p message -e 90 -c 2 -a 0 -i 8 -k MAC 
- -t 1.607359385 -s 3 -d -1 -p message -e 90 -c 2 -a 0 -i 8 -k MAC
h -t 1.607359385 -s 3 -d -1 -p message -e 90 -c 2 -a 0 -i 8 -k MAC
r -t 1.608080053 -s 2 -d -1 -p message -e 32 -c 2 -a 0 -i 8 -k MAC
r -t 1.608080073 -s 5 -d -1 -p message -e 32 -c 2 -a 0 -i 8 -k MAC
r -t 1.608105053 -s 2 -d -1 -p message -e 32 -c 2 -a 0 -i 8 -k RTR
r -t 1.608105073 -s 5 -d -1 -p message -e 32 -c 2 -a 0 -i 8 -k RTR
+ -t 1.638902377 -s 5 -d -1 -p message -e 32 -c 2 -a 0 -i 9 -k RTR 
- -t 1.638902377 -s 5 -d -1 -p message -e 32 -c 2 -a 0 -i 9 -k RTR
h -t 1.638902377 -s 5 -d -1 -p message -e 32 -c 2 -a 0 -i 9 -k RTR
+ -t 1.639257377 -s 5 -d -1 -p message -e 90 -c 2 -a 0 -i 9 -k MAC 
- -t 1.639257377 -s 5 -d -1 -p message -e 90 -c 2 -a 0 -i 9 -k MAC
h -t 1.639257377 -s 5 -d -1 -p message -e 90 -c 2 -a 0 -i 9 -k MAC
r -t 1.639977750 -s 8 -d -1 -p message -e 32 -c 2 -a 0 -i 9 -k MAC
r -t 1.639977838 -s 9 -d -1 -p message -e 32 -c 2 -a 0 -i 9 -k MAC
r -t 1.639977998 -s 4 -d -1 -p message -e 32 -c 2 -a 0 -i 9 -k MAC
r -t 1.639978063 -s 3 -d -1 -p message -e 32 -c 2 -a 0 -i 9 -k MAC
r -t 1.639978074 -s 7 -d -1 -p message -e 32 -c 2 -a 0 -i 9 -k MAC
r -t 1.640002750 -s 8 -d -1 -p message -e 32 -c 2 -a 0 -i 9 -k RTR
r -t 1.640002838 -s 9 -d -1 -p message -e 32 -c 2 -a 0 -i 9 -k RTR
r -t 1.640002998 -s 4 -d -1 -p message -e 32 -c 2 -a 0 -i 9 -k RTR
r -t 1.640003063 -s 3 -d -1 -p message -e 32 -c 2 -a 0 -i 9 -k RTR
r -t 1.640003074 -s 7 -d -1 -p message -e 32 -c 2 -a 0 -i 9 -k RTR
+ -t 1.675217011 -s 9 -d -1 -p message -e 32 -c 2 -a 0 -i 10 -k RTR 
- -t 1.675217011 -s 9 -d -1 -p message -e 32 -c 2 -a 0 -i 10 -k RTR
h -t 1.675217011 -s 9 -d -1 -p message -e 32 -c 2 -a 0 -i 10 -k RTR
+ -t 1.675292011 -s 9 -d -1 -p message -e 90 -c 2 -a 0 -i 10 -k MAC 
- -t 1.675292011 -s 9 -d -1 -p message -e 90 -c 2 -a 0 -i 10 -k MAC
h -t 1.675292011 -s 9 -d -1 -p message -e 90 -c 2 -a 0 -i 10 -k MAC
r -t 1.676012449 -s 8 -d -1 -p message -e 32 -c 2 -a 0 -i 10 -k MAC
r -t 1.676012474 -s 5 -d -1 -p message -e 32 -c 2 -a 0 -i 10 -k MAC
r -t 1.676037449 -s 8 -d -1 -p message -e 32 -c 2 -a 0 -i 10 -k RTR
r -t 1.676037474 -s 5 -d -1 -p message -e 32 -c 2 -a 0 -i 10 -k RTR
+ -t 4.000000000 -s 0 -d -1 -p tcp -e 40 -c 2 -a 0 -i 11 -k AGT 
- -t 4.000000000 -s 0 -d -1 -p tcp -e 40 -c 2 -a 0 -i 11 -k AGT
h -t 4.000000000 -s 0 -d -1 -p tcp -e 40 -c 2 -a 0 -i 11 -k AGT
+ -t 10.000000000 -s 0 -d -1 -p tcp -e 40 -c 2 -a 0 -i 12 -k AGT 
- -t 10.000000000 -s 0 -d -1 -p tcp -e 40 -c 2 -a 0 -i 12 -k AGT
h -t 10.000000000 -s 0 -d -1 -p tcp -e 40 -c 2 -a 0 -i 12 -k AGT
+ -t 11.441507154 -s 0 -d -1 -p message -e 32 -c 2 -a 0 -i 13 -k RTR 
- -t 11.441507154 -s 0 -d -1 -p message -e 32 -c 2 -a 0 -i 13 -k RTR
h -t 11.441507154 -s 0 -d -1 -p message -e 32 -c 2 -a 0 -i 13 -k RTR
+ -t 11.441802154 -s 0 -d -1 -p message -e 90 -c 2 -a 0 -i 13 -k MAC 
- -t 11.441802154 -s 0 -d -1 -p message -e 90 -c 2 -a 0 -i 13 -k MAC
h -t 11.441802154 -s 0 -d -1 -p message -e 90 -c 2 -a 0 -i 13 -k MAC
r -t 11.442522893 -s 2 -d -1 -p message -e 32 -c 2 -a 0 -i 13 -k MAC
r -t 11.442522932 -s 1 -d -1 -p message -e 32 -c 2 -a 0 -i 13 -k MAC
r -t 11.442547893 -s 2 -d -1 -p message -e 32 -c 2 -a 0 -i 13 -k RTR
r -t 11.442547932 -s 1 -d -1 -p message -e 32 -c 2 -a 0 -i 13 -k RTR
+ -t 12.189416291 -s 6 -d -1 -p message -e 32 -c 2 -a 0 -i 16 -k RTR 
- -t 12.189416291 -s 6 -d -1 -p message -e 32 -c 2 -a 0 -i 16 -k RTR
h -t 12.189416291 -s 6 -d -1 -p message -e 32 -c 2 -a 0 -i 16 -k RTR
+ -t 12.189491291 -s 6 -d -1 -p message -e 90 -c 2 -a 0 -i 16 -k MAC 
- -t 12.189491291 -s 6 -d -1 -p message -e 90 -c 2 -a 0 -i 16 -k MAC
h -t 12.189491291 -s 6 -d -1 -p message -e 90 -c 2 -a 0 -i 16 -k MAC
r -t 12.190211782 -s 4 -d -1 -p message -e 32 -c 2 -a 0 -i 16 -k MAC
r -t 12.190211793 -s 1 -d -1 -p message -e 32 -c 2 -a 0 -i 16 -k MAC
r -t 12.190212019 -s 2 -d -1 -p message -e 32 -c 2 -a 0 -i 16 -k MAC
r -t 12.190212022 -s 7 -d -1 -p message -e 32 -c 2 -a 0 -i 16 -k MAC
r -t 12.190236782 -s 4 -d -1 -p message -e 32 -c 2 -a 0 -i 16 -k RTR
r -t 12.190236793 -s 1 -d -1 -p message -e 32 -c 2 -a 0 -i 16 -k RTR
r -t 12.190237019 -s 2 -d -1 -p message -e 32 -c 2 -a 0 -i 16 -k RTR
r -t 12.190237022 -s 7 -d -1 -p message -e 32 -c 2 -a 0 -i 16 -k RTR
+ -t 12.448357075 -s 0 -d -1 -p message -e 32 -c 2 -a 0 -i 17 -k RTR 
- -t 12.448357075 -s 0 -d -1 -p message -e 32 -c 2 -a 0 -i 17 -k RTR
h -t 12.448357075 -s 0 -d -1 -p message -e 32 -c 2 -a 0 -i 17 -k RTR
+ -t 12.448712075 -s 0 -d -1 -p message -e 90 -c 2 -a 0 -i 17 -k MAC 
- -t 12.448712075 -s 0 -d -1 -p message -e 90 -c 2 -a 0 -i 17 -k MAC
h -t 12.448712075 -s 0 -d -1 -p message -e 90 -c 2 -a 0 -i 17 -k MAC
r -t 12.449432824 -s 2 -d -1 -p message -e 32 -c 2 -a 0 -i 17 -k MAC
r -t 12.449432853 -s 1 -d -1 -p message -e 32 -c 2 -a 0 -i 17 -k MAC
r -t 12.449457824 -s 2 -d -1 -p message -e 32 -c 2 -a 0 -i 17 -k RTR
r -t 12.449457853 -s 1 -d -1 -p message -e 32 -c 2 -a 0 -i 17 -k RTR
+ -t 12.480101570 -s 1 -d -1 -p message -e 32 -c 2 -a 0 -i 19 -k RTR 
- -t 12.480101570 -s 1 -d -1 -p message -e 32 -c 2 -a 0 -i 19 -k RTR
h -t 12.480101570 -s 1 -d -1 -p message -e 32 -c 2 -a 0 -i 19 -k RTR
+ -t 12.480476570 -s 1 -d -1 -p message -e 90 -c 2 -a 0 -i 19 -k MAC 
- -t 12.480476570 -s 1 -d -1 -p message -e 90 -c 2 -a 0 -i 19 -k MAC
h -t 12.480476570 -s 1 -d -1 -p message -e 90 -c 2 -a 0 -i 19 -k MAC
r -t 12.481197071 -s 6 -d -1 -p message -e 32 -c 2 -a 0 -i 19 -k MAC
r -t 12.481197271 -s 2 -d -1 -p message -e 32 -c 2 -a 0 -i 19 -k MAC
r -t 12.481197348 -s 0 -d -1 -p message -e 32 -c 2 -a 0 -i 19 -k MAC
r -t 12.481222071 -s 6 -d -1 -p message -e 32 -c 2 -a 0 -i 19 -k RTR
r -t 12.481222271 -s 2 -d -1 -p message -e 32 -c 2 -a 0 -i 19 -k RTR
r -t 12.481222348 -s 0 -d -1 -p message -e 32 -c 2 -a 0 -i 19 -k RTR
+ -t 12.485263652 -s 4 -d -1 -p message -e 32 -c 2 -a 0 -i 18 -k RTR 
- -t 12.485263652 -s 4 -d -1 -p message -e 32 -c 2 -a 0 -i 18 -k RTR
h -t 12.485263652 -s 4 -d -1 -p message -e 32 -c 2 -a 0 -i 18 -k RTR
+ -t 12.485798652 -s 4 -d -1 -p message -e 90 -c 2 -a 0 -i 18 -k MAC 
- -t 12.485798652 -s 4 -d -1 -p message -e 90 -c 2 -a 0 -i 18 -k MAC
h -t 12.485798652 -s 4 -d -1 -p message -e 90 -c 2 -a 0 -i 18 -k MAC
r -t 12.486519019 -s 7 -d -1 -p message -e 32 -c 2 -a 0 -i 18 -k MAC
r -t 12.486519137 -s 5 -d -1 -p message -e 32 -c 2 -a 0 -i 18 -k MAC
r -t 12.486519143 -s 6 -d -1 -p message -e 32 -c 2 -a 0 -i 18 -k MAC
r -t 12.486519405 -s 8 -d -1 -p message -e 32 -c 2 -a 0 -i 18 -k MAC
r -t 12.486519435 -s 2 -d -1 -p message -e 32 -c 2 -a 0 -i 18 -k MAC
r -t 12.486544019 -s 7 -d -1 -p message -e 32 -c 2 -a 0 -i 18 -k RTR
r -t 12.486544137 -s 5 -d -1 -p message -e 32 -c 2 -a 0 -i 18 -k RTR
r -t 12.486544143 -s 6 -d -1 -p message -e 32 -c 2 -a 0 -i 18 -k RTR
r -t 12.486544405 -s 8 -d -1 -p message -e 32 -c 2 -a 0 -i 18 -k RTR
r -t 12.486544435 -s 2 -d -1 -p message -e 32 -c 2 -a 0 -i 18 -k RTR
+ -t 12.488074587 -s 7 -d -1 -p message -e 32 -c 2 -a 0 -i 20 -k RTR 
- -t 12.488074587 -s 7 -d -1 -p message -e 32 -c 2 -a 0 -i 20 -k RTR
h -t 12.488074587 -s 7 -d -1 -p message -e 32 -c 2 -a 0 -i 20 -k RTR
+ -t 12.488349587 -s 7 -d -1 -p message -e 90 -c 2 -a 0 -i 20 -k MAC 
- -t 12.488349587 -s 7 -d -1 -p message -e 90 -c 2 -a 0 -i 20 -k MAC
h -t 12.488349587 -s 7 -d -1 -p message -e 90 -c 2 -a 0 -i 20 -k MAC
r -t 12.489069953 -s 4 -d -1 -p message -e 32 -c 2 -a 0 -i 20 -k MAC
r -t 12.489070212 -s 8 -d -1 -p message -e 32 -c 2 -a 0 -i 20 -k MAC
r -t 12.489070317 -s 6 -d -1 -p message -e 32 -c 2 -a 0 -i 20 -k MAC
r -t 12.489070323 -s 5 -d -1 -p message -e 32 -c 2 -a 0 -i 20 -k MAC
r -t 12.489094953 -s 4 -d -1 -p message -e 32 -c 2 -a 0 -i 20 -k RTR
r -t 12.489095212 -s 8 -d -1 -p message -e 32 -c 2 -a 0 -i 20 -k RTR
r -t 12.489095317 -s 6 -d -1 -p message -e 32 -c 2 -a 0 -i 20 -k RTR
r -t 12.489095323 -s 5 -d -1 -p message -e 32 -c 2 -a 0 -i 20 -k RTR
+ -t 12.625227042 -s 9 -d -1 -p message -e 32 -c 2 -a 0 -i 22 -k RTR 
- -t 12.625227042 -s 9 -d -1 -p message -e 32 -c 2 -a 0 -i 22 -k RTR
h -t 12.625227042 -s 9 -d -1 -p message -e 32 -c 2 -a 0 -i 22 -k RTR
+ -t 12.625502042 -s 9 -d -1 -p message -e 90 -c 2 -a 0 -i 22 -k MAC 
- -t 12.625502042 -s 9 -d -1 -p message -e 90 -c 2 -a 0 -i 22 -k MAC
h -t 12.625502042 -s 9 -d -1 -p message -e 90 -c 2 -a 0 -i 22 -k MAC
r -t 12.626222480 -s 8 -d -1 -p message -e 32 -c 2 -a 0 -i 22 -k MAC
r -t 12.626222825 -s 5 -d -1 -p message -e 32 -c 2 -a 0 -i 22 -k MAC
r -t 12.626247480 -s 8 -d -1 -p message -e 32 -c 2 -a 0 -i 22 -k RTR
r -t 12.626247825 -s 5 -d -1 -p message -e 32 -c 2 -a 0 -i 22 -k RTR
+ -t 12.628557160 -s 5 -d -1 -p message -e 32 -c 2 -a 0 -i 21 -k RTR 
- -t 12.628557160 -s 5 -d -1 -p message -e 32 -c 2 -a 0 -i 21 -k RTR
h -t 12.628557160 -s 5 -d -1 -p message -e 32 -c 2 -a 0 -i 21 -k RTR
+ -t 12.628972160 -s 5 -d -1 -p message -e 90 -c 2 -a 0 -i 21 -k MAC 
- -t 12.628972160 -s 5 -d -1 -p message -e 90 -c 2 -a 0 -i 21 -k MAC
h -t 12.628972160 -s 5 -d -1 -p message -e 90 -c 2 -a 0 -i 21 -k MAC
r -t 12.629692640 -s 3 -d -1 -p message -e 32 -c 2 -a 0 -i 21 -k MAC
r -t 12.629692645 -s 4 -d -1 -p message -e 32 -c 2 -a 0 -i 21 -k MAC
r -t 12.629692847 -s 8 -d -1 -p message -e 32 -c 2 -a 0 -i 21 -k MAC
r -t 12.629692851 -s 2 -d -1 -p message -e 32 -c 2 -a 0 -i 21 -k MAC
r -t 12.629692897 -s 7 -d -1 -p message -e 32 -c 2 -a 0 -i 21 -k MAC
r -t 12.629692943 -s 9 -d -1 -p message -e 32 -c 2 -a 0 -i 21 -k MAC
r -t 12.629717640 -s 3 -d -1 -p message -e 32 -c 2 -a 0 -i 21 -k RTR
r -t 12.629717645 -s 4 -d -1 -p message -e 32 -c 2 -a 0 -i 21 -k RTR
r -t 12.629717847 -s 8 -d -1 -p message -e 32 -c 2 -a 0 -i 21 -k RTR
r -t 12.629717851 -s 2 -d -1 -p message -e 32 -c 2 -a 0 -i 21 -k RTR
r -t 12.629717897 -s 7 -d -1 -p message -e 32 -c 2 -a 0 -i 21 -k RTR
r -t 12.629717943 -s 9 -d -1 -p message -e 32 -c 2 -a 0 -i 21 -k RTR
+ -t 12.641363672 -s 8 -d -1 -p message -e 32 -c 2 -a 0 -i 23 -k RTR 
- -t 12.641363672 -s 8 -d -1 -p message -e 32 -c 2 -a 0 -i 23 -k RTR
h -t 12.641363672 -s 8 -d -1 -p message -e 32 -c 2 -a 0 -i 23 -k RTR
+ -t 12.641498672 -s 8 -d -1 -p message -e 90 -c 2 -a 0 -i 23 -k MAC 
- -t 12.641498672 -s 8 -d -1 -p message -e 90 -c 2 -a 0 -i 23 -k MAC
h -t 12.641498672 -s 8 -d -1 -p message -e 90 -c 2 -a 0 -i 23 -k MAC
r -t 12.642219110 -s 9 -d -1 -p message -e 32 -c 2 -a 0 -i 23 -k MAC
r -t 12.642219298 -s 7 -d -1 -p message -e 32 -c 2 -a 0 -i 23 -k MAC
r -t 12.642219359 -s 5 -d -1 -p message -e 32 -c 2 -a 0 -i 23 -k MAC
r -t 12.642219425 -s 4 -d -1 -p message -e 32 -c 2 -a 0 -i 23 -k MAC
r -t 12.642244110 -s 9 -d -1 -p message -e 32 -c 2 -a 0 -i 23 -k RTR
r -t 12.642244298 -s 7 -d -1 -p message -e 32 -c 2 -a 0 -i 23 -k RTR
r -t 12.642244359 -s 5 -d -1 -p message -e 32 -c 2 -a 0 -i 23 -k RTR
r -t 12.642244425 -s 4 -d -1 -p message -e 32 -c 2 -a 0 -i 23 -k RTR
+ -t 12.693832102 -s 4 -d -1 -p message -e 56 -c 2 -a 0 -i 24 -k RTR 
- -t 12.693832102 -s 4 -d -1 -p message -e 56 -c 2 -a 0 -i 24 -k RTR
h -t 12.693832102 -s 4 -d -1 -p message -e 56 -c 2 -a 0 -i 24 -k RTR
+ -t 12.694347102 -s 4 -d -1 -p message -e 114 -c 2 -a 0 -i 24 -k MAC 
- -t 12.694347102 -s 4 -d -1 -p message -e 114 -c 2 -a 0 -i 24 -k MAC
h -t 12.694347102 -s 4 -d -1 -p message -e 114 -c 2 -a 0 -i 24 -k MAC
r -t 12.695259469 -s 7 -d -1 -p message -e 56 -c 2 -a 0 -i 24 -k MAC
r -t 12.695259587 -s 5 -d -1 -p message -e 56 -c 2 -a 0 -i 24 -k MAC
r -t 12.695259592 -s 6 -d -1 -p message -e 56 -c 2 -a 0 -i 24 -k MAC
r -t 12.695259854 -s 8 -d -1 -p message -e 56 -c 2 -a 0 -i 24 -k MAC
r -t 12.695259879 -s 2 -d -1 -p message -e 56 -c 2 -a 0 -i 24 -k MAC
r -t 12.695284469 -s 7 -d -1 -p message -e 56 -c 2 -a 0 -i 24 -k RTR
r -t 12.695284587 -s 5 -d -1 -p message -e 56 -c 2 -a 0 -i 24 -k RTR
r -t 12.695284592 -s 6 -d -1 -p message -e 56 -c 2 -a 0 -i 24 -k RTR
r -t 12.695284854 -s 8 -d -1 -p message -e 56 -c 2 -a 0 -i 24 -k RTR
r -t 12.695284879 -s 2 -d -1 -p message -e 56 -c 2 -a 0 -i 24 -k RTR
+ -t 12.896716184 -s 3 -d -1 -p message -e 32 -c 2 -a 0 -i 25 -k RTR 
- -t 12.896716184 -s 3 -d -1 -p message -e 32 -c 2 -a 0 -i 25 -k RTR
h -t 12.896716184 -s 3 -d -1 -p message -e 32 -c 2 -a 0 -i 25 -k RTR
+ -t 12.897091184 -s 3 -d -1 -p message -e 90 -c 2 -a 0 -i 25 -k MAC 
- -t 12.897091184 -s 3 -d -1 -p message -e 90 -c 2 -a 0 -i 25 -k MAC
h -t 12.897091184 -s 3 -d -1 -p message -e 90 -c 2 -a 0 -i 25 -k MAC
r -t 12.897811663 -s 5 -d -1 -p message -e 32 -c 2 -a 0 -i 25 -k MAC
r -t 12.897811890 -s 2 -d -1 -p message -e 32 -c 2 -a 0 -i 25 -k MAC
r -t 12.897836663 -s 5 -d -1 -p message -e 32 -c 2 -a 0 -i 25 -k RTR
r -t 12.897836890 -s 2 -d -1 -p message -e 32 -c 2 -a 0 -i 25 -k RTR
+ -t 13.020419334 -s 1 -d -1 -p message -e 44 -c 2 -a 0 -i 26 -k RTR 
- -t 13.020419334 -s 1 -d -1 -p message -e 44 -c 2 -a 0 -i 26 -k RTR
h -t 13.020419334 -s 1 -d -1 -p message -e 44 -c 2 -a 0 -i 26 -k RTR
+ -t 13.021074334 -s 1 -d -1 -p message -e 102 -c 2 -a 0 -i 26 -k MAC 
- -t 13.021074334 -s 1 -d -1 -p message -e 102 -c 2 -a 0 -i 26 -k MAC
h -t 13.021074334 -s 1 -d -1 -p message -e 102 -c 2 -a 0 -i 26 -k MAC
r -t 13.021890836 -s 6 -d -1 -p message -e 44 -c 2 -a 0 -i 26 -k MAC
r -t 13.021891029 -s 2 -d -1 -p message -e 44 -c 2 -a 0 -i 26 -k MAC
r -t 13.021891112 -s 0 -d -1 -p message -e 44 -c 2 -a 0 -i 26 -k MAC
r -t 13.021915836 -s 6 -d -1 -p message -e 44 -c 2 -a 0 -i 26 -k RTR
r -t 13.021916029 -s 2 -d -1 -p message -e 44 -c 2 -a 0 -i 26 -k RTR
r -t 13.021916112 -s 0 -d -1 -p message -e 44 -c 2 -a 0 -i 26 -k RTR
+ -t 13.030304494 -s 6 -d -1 -p message -e 32 -c 2 -a 0 -i 27 -k RTR 
- -t 13.030304494 -s 6 -d -1 -p message -e 32 -c 2 -a 0 -i 27 -k RTR
h -t 13.030304494 -s 6 -d -1 -p message -e 32 -c 2 -a 0 -i 27 -k RTR
+ -t 13.030819494 -s 6 -d -1 -p message -e 90 -c 2 -a 0 -i 27 -k MAC 
- -t 13.030819494 -s 6 -d -1 -p message -e 90 -c 2 -a 0 -i 27 -k MAC
h -t 13.030819494 -s 6 -d -1 -p message -e 90 -c 2 -a 0 -i 27 -k MAC
r -t 13.031539984 -s 4 -d -1 -p message -e 32 -c 2 -a 0 -i 27 -k MAC
r -t 13.031539996 -s 1 -d -1 -p message -e 32 -c 2 -a 0 -i 27 -k MAC
r -t 13.031540203 -s 2 -d -1 -p message -e 32 -c 2 -a 0 -i 27 -k MAC
r -t 13.031540224 -s 7 -d -1 -p message -e 32 -c 2 -a 0 -i 27 -k MAC
r -t 13.031564984 -s 4 -d -1 -p message -e 32 -c 2 -a 0 -i 27 -k RTR
r -t 13.031564996 -s 1 -d -1 -p message -e 32 -c 2 -a 0 -i 27 -k RTR
r -t 13.031565203 -s 2 -d -1 -p message -e 32 -c 2 -a 0 -i 27 -k RTR
r -t 13.031565224 -s 7 -d -1 -p message -e 32 -c 2 -a 0 -i 27 -k RTR
+ -t 13.234002417 -s 7 -d -1 -p message -e 44 -c 2 -a 0 -i 28 -k RTR 
- -t 13.234002417 -s 7 -d -1 -p message -e 44 -c 2 -a 0 -i 28 -k RTR
h -t 13.234002417 -s 7 -d -1 -p message -e 44 -c 2 -a 0 -i 28 -k RTR
+ -t 13.234297417 -s 7 -d -1 -p message -e 102 -c 2 -a 0 -i 28 -k MAC 
- -t 13.234297417 -s 7 -d -1 -p message -e 102 -c 2 -a 0 -i 28 -k MAC
h -t 13.234297417 -s 7 -d -1 -p message -e 102 -c 2 -a 0 -i 28 -k MAC
r -t 13.235113783 -s 4 -d -1 -p message -e 44 -c 2 -a 0 -i 28 -k MAC
r -t 13.235114042 -s 8 -d -1 -p message -e 44 -c 2 -a 0 -i 28 -k MAC
r -t 13.235114147 -s 6 -d -1 -p message -e 44 -c 2 -a 0 -i 28 -k MAC
r -t 13.235114153 -s 5 -d -1 -p message -e 44 -c 2 -a 0 -i 28 -k MAC
r -t 13.235138783 -s 4 -d -1 -p message -e 44 -c 2 -a 0 -i 28 -k RTR
r -t 13.235139042 -s 8 -d -1 -p message -e 44 -c 2 -a 0 -i 28 -k RTR
r -t 13.235139147 -s 6 -d -1 -p message -e 44 -c 2 -a 0 -i 28 -k RTR
r -t 13.235139153 -s 5 -d -1 -p message -e 44 -c 2 -a 0 -i 28 -k RTR
+ -t 13.277240916 -s 3 -d -1 -p message -e 44 -c 2 -a 0 -i 29 -k RTR 
- -t 13.277240916 -s 3 -d -1 -p message -e 44 -c 2 -a 0 -i 29 -k RTR
h -t 13.277240916 -s 3 -d -1 -p message -e 44 -c 2 -a 0 -i 29 -k RTR
+ -t 13.277635916 -s 3 -d -1 -p message -e 102 -c 2 -a 0 -i 29 -k MAC 
- -t 13.277635916 -s 3 -d -1 -p message -e 102 -c 2 -a 0 -i 29 -k MAC
h -t 13.277635916 -s 3 -d -1 -p message -e 102 -c 2 -a 0 -i 29 -k MAC
r -t 13.278452395 -s 5 -d -1 -p message -e 44 -c 2 -a 0 -i 29 -k MAC
r -t 13.278452622 -s 2 -d -1 -p message -e 44 -c 2 -a 0 -i 29 -k MAC
r -t 13.278477395 -s 5 -d -1 -p message -e 44 -c 2 -a 0 -i 29 -k RTR
r -t 13.278477622 -s 2 -d -1 -p message -e 44 -c 2 -a 0 -i 29 -k RTR
+ -t 13.439208327 -s 0 -d -1 -p message -e 32 -c 2 -a 0 -i 30 -k RTR 
- -t 13.439208327 -s 0 -d -1 -p message -e 32 -c 2 -a 0 -i 30 -k RTR
h -t 13.439208327 -s 0 -d -1 -p message -e 32 -c 2 -a 0 -i 30 -k RTR
+ -t 13.439603327 -s 0 -d -1 -p message -e 90 -c 2 -a 0 -i 30 -k MAC 
- -t 13.439603327 -s 0 -d -1 -p message -e 90 -c 2 -a 0 -i 30 -k MAC
h -t 13.439603327 -s 0 -d -1 -p message -e 90 -c 2 -a 0 -i 30 -k MAC
r -t 13.440324080 -s 2 -d -1 -p message -e 32 -c 2 -a 0 -i 30 -k MAC
r -t 13.440324105 -s 1 -d -1 -p message -e 32 -c 2 -a 0 -i 30 -k MAC
r -t 13.440349080 -s 2 -d -1 -p message -e 32 -c 2 -a 0 -i 30 -k RTR
r -t 13.440349105 -s 1 -d -1 -p message -e 32 -c 2 -a 0 -i 30 -k RTR
+ -t 13.623989161 -s 8 -d -1 -p message -e 32 -c 2 -a 0 -i 32 -k RTR 
- -t 13.623989161 -s 8 -d -1 -p message -e 32 -c 2 -a 0 -i 32 -k RTR
h -t 13.623989161 -s 8 -d -1 -p message -e 32 -c 2 -a 0 -i 32 -k RTR
+ -t 13.624164161 -s 8 -d -1 -p message -e 90 -c 2 -a 0 -i 32 -k MAC 
- -t 13.624164161 -s 8 -d -1 -p message -e 90 -c 2 -a 0 -i 32 -k MAC
h -t 13.624164161 -s 8 -d -1 -p message -e 90 -c 2 -a 0 -i 32 -k MAC
r -t 13.624884598 -s 9 -d -1 -p message -e 32 -c 2 -a 0 -i 32 -k MAC
r -t 13.624884786 -s 7 -d -1 -p message -e 32 -c 2 -a 0 -i 32 -k MAC
r -t 13.624884847 -s 5 -d -1 -p message -e 32 -c 2 -a 0 -i 32 -k MAC
r -t 13.624884913 -s 4 -d -1 -p message -e 32 -c 2 -a 0 -i 32 -k MAC
r -t 13.624909598 -s 9 -d -1 -p message -e 32 -c 2 -a 0 -i 32 -k RTR
r -t 13.624909786 -s 7 -d -1 -p message -e 32 -c 2 -a 0 -i 32 -k RTR
r -t 13.624909847 -s 5 -d -1 -p message -e 32 -c 2 -a 0 -i 32 -k RTR
r -t 13.624909913 -s 4 -d -1 -p message -e 32 -c 2 -a 0 -i 32 -k RTR
+ -t 13.626421111 -s 5 -d -1 -p message -e 32 -c 2 -a 0 -i 33 -k RTR 
- -t 13.626421111 -s 5 -d -1 -p message -e 32 -c 2 -a 0 -i 33 -k RTR
h -t 13.626421111 -s 5 -d -1 -p message -e 32 -c 2 -a 0 -i 33 -k RTR
+ -t 13.627016111 -s 5 -d -1 -p message -e 90 -c 2 -a 0 -i 33 -k MAC 
- -t 13.627016111 -s 5 -d -1 -p message -e 90 -c 2 -a 0 -i 33 -k MAC
h -t 13.627016111 -s 5 -d -1 -p message -e 90 -c 2 -a 0 -i 33 -k MAC
r -t 13.627736590 -s 3 -d -1 -p message -e 32 -c 2 -a 0 -i 33 -k MAC
r -t 13.627736596 -s 4 -d -1 -p message -e 32 -c 2 -a 0 -i 33 -k MAC
r -t 13.627736798 -s 8 -d -1 -p message -e 32 -c 2 -a 0 -i 33 -k MAC
r -t 13.627736801 -s 2 -d -1 -p message -e 32 -c 2 -a 0 -i 33 -k MAC
r -t 13.627736848 -s 7 -d -1 -p message -e 32 -c 2 -a 0 -i 33 -k MAC
r -t 13.627736894 -s 9 -d -1 -p message -e 32 -c 2 -a 0 -i 33 -k MAC
r -t 13.627761590 -s 3 -d -1 -p message -e 32 -c 2 -a 0 -i 33 -k RTR
r -t 13.627761596 -s 4 -d -1 -p message -e 32 -c 2 -a 0 -i 33 -k RTR
r -t 13.627761798 -s 8 -d -1 -p message -e 32 -c 2 -a 0 -i 33 -k RTR
r -t 13.627761801 -s 2 -d -1 -p message -e 32 -c 2 -a 0 -i 33 -k RTR
r -t 13.627761848 -s 7 -d -1 -p message -e 32 -c 2 -a 0 -i 33 -k RTR
r -t 13.627761894 -s 9 -d -1 -p message -e 32 -c 2 -a 0 -i 33 -k RTR
+ -t 13.643314959 -s 9 -d -1 -p message -e 32 -c 2 -a 0 -i 34 -k RTR 
- -t 13.643314959 -s 9 -d -1 -p message -e 32 -c 2 -a 0 -i 34 -k RTR
h -t 13.643314959 -s 9 -d -1 -p message -e 32 -c 2 -a 0 -i 34 -k RTR
+ -t 13.643409959 -s 9 -d -1 -p message -e 90 -c 2 -a 0 -i 34 -k MAC 
- -t 13.643409959 -s 9 -d -1 -p message -e 90 -c 2 -a 0 -i 34 -k MAC
h -t 13.643409959 -s 9 -d -1 -p message -e 90 -c 2 -a 0 -i 34 -k MAC
r -t 13.644130396 -s 8 -d -1 -p message -e 32 -c 2 -a 0 -i 34 -k MAC
r -t 13.644130741 -s 5 -d -1 -p message -e 32 -c 2 -a 0 -i 34 -k MAC
r -t 13.644155396 -s 8 -d -1 -p message -e 32 -c 2 -a 0 -i 34 -k RTR
r -t 13.644155741 -s 5 -d -1 -p message -e 32 -c 2 -a 0 -i 34 -k RTR
+ -t 13.692413036 -s 4 -d -1 -p message -e 32 -c 2 -a 0 -i 35 -k RTR 
- -t 13.692413036 -s 4 -d -1 -p message -e 32 -c 2 -a 0 -i 35 -k RTR
h -t 13.692413036 -s 4 -d -1 -p message -e 32 -c 2 -a 0 -i 35 -k RTR
+ -t 13.692748036 -s 4 -d -1 -p message -e 90 -c 2 -a 0 -i 35 -k MAC 
- -t 13.692748036 -s 4 -d -1 -p message -e 90 -c 2 -a 0 -i 35 -k MAC
h -t 13.692748036 -s 4 -d -1 -p message -e 90 -c 2 -a 0 -i 35 -k MAC
r -t 13.693468403 -s 7 -d -1 -p message -e 32 -c 2 -a 0 -i 35 -k MAC
r -t 13.693468521 -s 5 -d -1 -p message -e 32 -c 2 -a 0 -i 35 -k MAC
r -t 13.693468527 -s 6 -d -1 -p message -e 32 -c 2 -a 0 -i 35 -k MAC
r -t 13.693468789 -s 8 -d -1 -p message -e 32 -c 2 -a 0 -i 35 -k MAC
r -t 13.693468812 -s 2 -d -1 -p message -e 32 -c 2 -a 0 -i 35 -k MAC
r -t 13.693493403 -s 7 -d -1 -p message -e 32 -c 2 -a 0 -i 35 -k RTR
r -t 13.693493521 -s 5 -d -1 -p message -e 32 -c 2 -a 0 -i 35 -k RTR
r -t 13.693493527 -s 6 -d -1 -p message -e 32 -c 2 -a 0 -i 35 -k RTR
r -t 13.693493789 -s 8 -d -1 -p message -e 32 -c 2 -a 0 -i 35 -k RTR
r -t 13.693493812 -s 2 -d -1 -p message -e 32 -c 2 -a 0 -i 35 -k RTR
n -t 14.000000 -s 2 -x 1424.000000 -y 1740.000000 -U -5.368755 -V 8.436615 -T 11.734564
n -t 14.000000 -s 5 -x 1625.000000 -y 1789.000000 -U 9.848752 -V 1.732651 -T 10.965856
+ -t 14.145762238 -s 5 -d -1 -p message -e 44 -c 2 -a 0 -i 37 -k RTR 
- -t 14.145762238 -s 5 -d -1 -p message -e 44 -c 2 -a 0 -i 37 -k RTR
h -t 14.145762238 -s 5 -d -1 -p message -e 44 -c 2 -a 0 -i 37 -k RTR
+ -t 14.146277238 -s 5 -d -1 -p message -e 102 -c 2 -a 0 -i 37 -k MAC 
- -t 14.146277238 -s 5 -d -1 -p message -e 102 -c 2 -a 0 -i 37 -k MAC
h -t 14.146277238 -s 5 -d -1 -p message -e 102 -c 2 -a 0 -i 37 -k MAC
r -t 14.147093719 -s 3 -d -1 -p message -e 44 -c 2 -a 0 -i 37 -k MAC
r -t 14.147093723 -s 4 -d -1 -p message -e 44 -c 2 -a 0 -i 37 -k MAC
r -t 14.147093919 -s 8 -d -1 -p message -e 44 -c 2 -a 0 -i 37 -k MAC
r -t 14.147093934 -s 2 -d -1 -p message -e 44 -c 2 -a 0 -i 37 -k MAC
r -t 14.147093972 -s 7 -d -1 -p message -e 44 -c 2 -a 0 -i 37 -k MAC
r -t 14.147094016 -s 9 -d -1 -p message -e 44 -c 2 -a 0 -i 37 -k MAC
r -t 14.147118719 -s 3 -d -1 -p message -e 44 -c 2 -a 0 -i 37 -k RTR
r -t 14.147118723 -s 4 -d -1 -p message -e 44 -c 2 -a 0 -i 37 -k RTR
r -t 14.147118919 -s 8 -d -1 -p message -e 44 -c 2 -a 0 -i 37 -k RTR
r -t 14.147118934 -s 2 -d -1 -p message -e 44 -c 2 -a 0 -i 37 -k RTR
r -t 14.147118972 -s 7 -d -1 -p message -e 44 -c 2 -a 0 -i 37 -k RTR
r -t 14.147119016 -s 9 -d -1 -p message -e 44 -c 2 -a 0 -i 37 -k RTR
+ -t 14.622321776 -s 8 -d -1 -p message -e 32 -c 2 -a 0 -i 40 -k RTR 
- -t 14.622321776 -s 8 -d -1 -p message -e 32 -c 2 -a 0 -i 40 -k RTR
h -t 14.622321776 -s 8 -d -1 -p message -e 32 -c 2 -a 0 -i 40 -k RTR
+ -t 14.622716776 -s 8 -d -1 -p message -e 90 -c 2 -a 0 -i 40 -k MAC 
- -t 14.622716776 -s 8 -d -1 -p message -e 90 -c 2 -a 0 -i 40 -k MAC
h -t 14.622716776 -s 8 -d -1 -p message -e 90 -c 2 -a 0 -i 40 -k MAC
r -t 14.623437213 -s 9 -d -1 -p message -e 32 -c 2 -a 0 -i 40 -k MAC
r -t 14.623437402 -s 7 -d -1 -p message -e 32 -c 2 -a 0 -i 40 -k MAC
r -t 14.623437443 -s 5 -d -1 -p message -e 32 -c 2 -a 0 -i 40 -k MAC
r -t 14.623437528 -s 4 -d -1 -p message -e 32 -c 2 -a 0 -i 40 -k MAC
r -t 14.623462213 -s 9 -d -1 -p message -e 32 -c 2 -a 0 -i 40 -k RTR
r -t 14.623462402 -s 7 -d -1 -p message -e 32 -c 2 -a 0 -i 40 -k RTR
r -t 14.623462443 -s 5 -d -1 -p message -e 32 -c 2 -a 0 -i 40 -k RTR