0.00000  -1 -1 -1 -1 cwnd_ 1.000 
0.00000  -1 -1 -1 -1 ssthresh_ 20
0.00000  -1 -1 -1 -1 ack_ -1
0.00000  -1 -1 -1 -1 maxseq_ -1
s 0.030050775 _0_ RTR  --- 0 message 32 [0 0 0 0] ------- [0:255 -1:255 32 0] 
s 0.030285775 _0_ MAC  --- 0 message 90 [0 ffffffff 0 800] ------- [0:255 -1:255 32 0] 
r 0.031006484 _2_ MAC  --- 0 message 32 [0 ffffffff 0 800] ------- [0:255 -1:255 32 0] 
r 0.031006554 _1_ MAC  --- 0 message 32 [0 ffffffff 0 800] ------- [0:255 -1:255 32 0] 
r 0.031031484 _2_ RTR  --- 0 message 32 [0 ffffffff 0 800] ------- [0:255 -1:255 32 0] 
r 0.031031554 _1_ RTR  --- 0 message 32 [0 ffffffff 0 800] ------- [0:255 -1:255 32 0] 
s 0.184842620 _1_ RTR  --- 1 message 32 [0 0 0 0] ------- [1:255 -1:255 32 0] 
s 0.185397620 _1_ MAC  --- 1 message 90 [0 ffffffff 1 800] ------- [1:255 -1:255 32 0] 
r 0.186118121 _6_ MAC  --- 1 message 32 [0 ffffffff 1 800] ------- [1:255 -1:255 32 0] 
r 0.186118398 _0_ MAC  --- 1 message 32 [0 ffffffff 1 800] ------- [1:255 -1:255 32 0] 
r 0.186143121 _6_ RTR  --- 1 message 32 [0 ffffffff 1 800] ------- [1:255 -1:255 32 0] 
r 0.186143398 _0_ RTR  --- 1 message 32 [0 ffffffff 1 800] ------- [1:255 -1:255 32 0] 
s 0.477273789 _6_ RTR  --- 2 message 32 [0 0 0 0] ------- [6:255 -1:255 32 0] 
s 0.477568789 _6_ MAC  --- 2 message 90 [0 ffffffff 6 800] ------- [6:255 -1:255 32 0] 
r 0.478289280 _4_ MAC  --- 2 message 32 [0 ffffffff 6 800] ------- [6:255 -1:255 32 0] 
r 0.478289291 _1_ MAC  --- 2 message 32 [0 ffffffff 6 800] ------- [6:255 -1:255 32 0] 
r 0.478289520 _7_ MAC  --- 2 message 32 [0 ffffffff 6 800] ------- [6:255 -1:255 32 0] 
r 0.478314280 _4_ RTR  --- 2 message 32 [0 ffffffff 6 800] ------- [6:255 -1:255 32 0] 
r 0.478314291 _1_ RTR  --- 2 message 32 [0 ffffffff 6 800] ------- [6:255 -1:255 32 0] 
r 0.478314520 _7_ RTR  --- 2 message 32 [0 ffffffff 6 800] ------- [6:255 -1:255 32 0] 
s 0.623344604 _8_ RTR  --- 3 message 32 [0 0 0 0] ------- [8:255 -1:255 32 0] 
s 0.623599604 _8_ MAC  --- 3 message 90 [0 ffffffff 8 800] ------- [8:255 -1:255 32 0] 
r 0.624319960 _5_ MAC  --- 3 message 32 [0 ffffffff 8 800] ------- [8:255 -1:255 32 0] 
r 0.624320041 _9_ MAC  --- 3 message 32 [0 ffffffff 8 800] ------- [8:255 -1:255 32 0] 
r 0.624320229 _7_ MAC  --- 3 message 32 [0 ffffffff 8 800] ------- [8:255 -1:255 32 0] 
r 0.624320356 _4_ MAC  --- 3 message 32 [0 ffffffff 8 800] ------- [8:255 -1:255 32 0] 
r 0.624344960 _5_ RTR  --- 3 message 32 [0 ffffffff 8 800] ------- [8:255 -1:255 32 0] 
r 0.624345041 _9_ RTR  --- 3 message 32 [0 ffffffff 8 800] ------- [8:255 -1:255 32 0] 
r 0.624345229 _7_ RTR  --- 3 message 32 [0 ffffffff 8 800] ------- [8:255 -1:255 32 0] 
r 0.624345356 _4_ RTR  --- 3 message 32 [0 ffffffff 8 800] ------- [8:255 -1:255 32 0] 
s 0.634321795 _4_ RTR  --- 4 message 32 [0 0 0 0] ------- [4:255 -1:255 32 0] 
s 0.634756795 _4_ MAC  --- 4 message 90 [0 ffffffff 4 800] ------- [4:255 -1:255 32 0] 
r 0.635477162 _7_ MAC  --- 4 message 32 [0 ffffffff 4 800] ------- [4:255 -1:255 32 0] 
r 0.635477286 _6_ MAC  --- 4 message 32 [0 ffffffff 4 800] ------- [4:255 -1:255 32 0] 
r 0.635477430 _5_ MAC  --- 4 message 32 [0 ffffffff 4 800] ------- [4:255 -1:255 32 0] 
r 0.635477548 _8_ MAC  --- 4 message 32 [0 ffffffff 4 800] ------- [4:255 -1:255 32 0] 
r 0.635502162 _7_ RTR  --- 4 message 32 [0 ffffffff 4 800] ------- [4:255 -1:255 32 0] 
r 0.635502286 _6_ RTR  --- 4 message 32 [0 ffffffff 4 800] ------- [4:255 -1:255 32 0] 
r 0.635502430 _5_ RTR  --- 4 message 32 [0 ffffffff 4 800] ------- [4:255 -1:255 32 0] 
r 0.635502548 _8_ RTR  --- 4 message 32 [0 ffffffff 4 800] ------- [4:255 -1:255 32 0] 
s 0.889120254 _2_ RTR  --- 5 message 32 [0 0 0 0] ------- [2:255 -1:255 32 0] 
s 0.889335254 _2_ MAC  --- 5 message 90 [0 ffffffff 2 800] ------- [2:255 -1:255 32 0] 
r 0.890055925 _3_ MAC  --- 5 message 32 [0 ffffffff 2 800] ------- [2:255 -1:255 32 0] 
r 0.890055962 _0_ MAC  --- 5 message 32 [0 ffffffff 2 800] ------- [2:255 -1:255 32 0] 
r 0.890080925 _3_ RTR  --- 5 message 32 [0 ffffffff 2 800] ------- [2:255 -1:255 32 0] 
r 0.890080962 _0_ RTR  --- 5 message 32 [0 ffffffff 2 800] ------- [2:255 -1:255 32 0] 
M 1.00000 2 (1361.00, 1839.00, 0.00), (1424.00, 1740.00), 10.00
M 1.00000 5 (1733.00, 1808.00, 0.00), (1625.00, 1789.00), 10.00
s 1.000000000 _0_ AGT  --- 6 tcp 40 [0 0 0 0] ------- [0:0 9:0 32 0] [0 -1] 0 0
r 1.000000000 _0_ RTR  --- 6 tcp 40 [0 0 0 0] ------- [0:0 9:0 32 0] [0 -1] 0 0
1.00000  0  0  9  0  maxseq_ 1
s 1.281772362 _7_ RTR  --- 7 message 32 [0 0 0 0] ------- [7:255 -1:255 32 0] 
s 1.282367362 _7_ MAC  --- 7 message 90 [0 ffffffff 7 800] ------- [7:255 -1:255 32 0] 
r 1.283087729 _4_ MAC  --- 7 message 32 [0 ffffffff 7 800] ------- [7:255 -1:255 32 0] 
r 1.283087987 _8_ MAC  --- 7 message 32 [0 ffffffff 7 800] ------- [7:255 -1:255 32 0] 
r 1.283088060 _5_ MAC  --- 7 message 32 [0 ffffffff 7 800] ------- [7:255 -1:255 32 0] 
r 1.283088092 _6_ MAC  --- 7 message 32 [0 ffffffff 7 800] ------- [7:255 -1:255 32 0] 
r 1.283112729 _4_ RTR  --- 7 message 32 [0 ffffffff 7 800] ------- [7:255 -1:255 32 0] 
r 1.283112987 _8_ RTR  --- 7 message 32 [0 ffffffff 7 800] ------- [7:255 -1:255 32 0] 
r 1.283113060 _5_ RTR  --- 7 message 32 [0 ffffffff 7 800] ------- [7:255 -1:255 32 0] 
r 1.283113092 _6_ RTR  --- 7 message 32 [0 ffffffff 7 800] ------- [7:255 -1:255 32 0] 
s 1.607224385 _3_ RTR  --- 8 message 32 [0 0 0 0] ------- [3:255 -1:255 32 0] 
s 1.607359385 _3_ MAC  --- 8 message 90 [0 ffffffff 3 800] ------- [3:255 -1:255 32 0] 
r 1.608080053 _2_ MAC  --- 8 message 32 [0 ffffffff 3 800] ------- [3:255 -1:255 32 0] 
r 1.608080073 _5_ MAC  --- 8 message 32 [0 ffffffff 3 800] ------- [3:255 -1:255 32 0] 
r 1.608105053 _2_ RTR  --- 8 message 32 [0 ffffffff 3 800] ------- [3:255 -1:255 32 0] 
r 1.608105073 _5_ RTR  --- 8 message 32 [0 ffffffff 3 800] ------- [3:255 -1:255 32 0] 
s 1.638902377 _5_ RTR  --- 9 message 32 [0 0 0 0] ------- [5:255 -1:255 32 0] 
s 1.639257377 _5_ MAC  --- 9 message 90 [0 ffffffff 5 800] ------- [5:255 -1:255 32 0] 
r 1.639977750 _8_ MAC  --- 9 message 32 [0 ffffffff 5 800] ------- [5:255 -1:255 32 0] 
r 1.639977838 _9_ MAC  --- 9 message 32 [0 ffffffff 5 800] ------- [5:255 -1:255 32 0] 
r 1.639977998 _4_ MAC  --- 9 message 32 [0 ffffffff 5 800] ------- [5:255 -1:255 32 0] 
r 1.639978063 _3_ MAC  --- 9 message 32 [0 ffffffff 5 800] ------- [5:255 -1:255 32 0] 
r 1.639978074 _7_ MAC  --- 9 message 32 [0 ffffffff 5 800] ------- [5:255 -1:255 32 0] 
r 1.640002750 _8_ RTR  --- 9 message 32 [0 ffffffff 5 800] ------- [5:255 -1:255 32 0] 
r 1.640002838 _9_ RTR  --- 9 message 32 [0 ffffffff 5 800] ------- [5:255 -1:255 32 0] 
r 1.640002998 _4_ RTR  --- 9 message 32 [0 ffffffff 5 800] ------- [5:255 -1:255 32 0] 
r 1.640003063 _3_ RTR  --- 9 message 32 [0 ffffffff 5 800] ------- [5:255 -1:255 32 0] 
r 1.640003074 _7_ RTR  --- 9 message 32 [0 ffffffff 5 800] ------- [5:255 -1:255 32 0] 
s 1.675217011 _9_ RTR  --- 10 message 32 [0 0 0 0] ------- [9:255 -1:255 32 0] 
s 1.675292011 _9_ MAC  --- 10 message 90 [0 ffffffff 9 800] ------- [9:255 -1:255 32 0] 
r 1.676012449 _8_ MAC  --- 10 message 32 [0 ffffffff 9 800] ------- [9:255 -1:255 32 0] 
r 1.676012474 _5_ MAC  --- 10 message 32 [0 ffffffff 9 800] ------- [9:255 -1:255 32 0] 
r 1.676037449 _8_ RTR  --- 10 message 32 [0 ffffffff 9 800] ------- [9:255 -1:255 32 0] 
r 1.676037474 _5_ RTR  --- 10 message 32 [0 ffffffff 9 800] ------- [9:255 -1:255 32 0] 
4.00000  0  0  9  0  ssthresh_ 0
4.00000  0  0  9  0  ssthresh_ 2
s 4.000000000 _0_ AGT  --- 11 tcp 40 [0 0 0 0] ------- [0:0 9:0 32 0] [0 -1] 0 0
r 4.000000000 _0_ RTR  --- 11 tcp 40 [0 0 0 0] ------- [0:0 9:0 32 0] [0 -1] 0 0
10.00000 0  0  9  0  ssthresh_ 0
10.00000 0  0  9  0  ssthresh_ 2
s 10.000000000 _0_ AGT  --- 12 tcp 40 [0 0 0 0] ------- [0:0 9:0 32 0] [0 -1] 0 0
r 10.000000000 _0_ RTR  --- 12 tcp 40 [0 0 0 0] ------- [0:0 9:0 32 0] [0 -1] 0 0
s 11.441507154 _0_ RTR  --- 13 message 32 [0 0 0 0] ------- [0:255 -1:255 32 0] 
s 11.441802154 _0_ MAC  --- 13 message 90 [0 ffffffff 0 800] ------- [0:255 -1:255 32 0] 
r 11.442522893 _2_ MAC  --- 13 message 32 [0 ffffffff 0 800] ------- [0:255 -1:255 32 0] 
r 11.442522932 _1_ MAC  --- 13 message 32 [0 ffffffff 0 800] ------- [0:255 -1:255 32 0] 
r 11.442547893 _2_ RTR  --- 13 message 32 [0 ffffffff 0 800] ------- [0:255 -1:255 32 0] 
r 11.442547932 _1_ RTR  --- 13 message 32 [0 ffffffff 0 800] ------- [0:255 -1:255 32 0] 
s 12.189416291 _6_ RTR  --- 16 message 32 [0 0 0 0] ------- [6:255 -1:255 32 0] 
s 12.189491291 _6_ MAC  --- 16 message 90 [0 ffffffff 6 800] ------- [6:255 -1:255 32 0] 
r 12.190211782 _4_ MAC  --- 16 message 32 [0 ffffffff 6 800] ------- [6:255 -1:255 32 0] 
r 12.190211793 _1_ MAC  --- 16 message 32 [0 ffffffff 6 800] ------- [6:255 -1:255 32 0] 
r 12.190212019 _2_ MAC  --- 16 message 32 [0 ffffffff 6 800] ------- [6:255 -1:255 32 0] 
r 12.190212022 _7_ MAC  --- 16 message 32 [0 ffffffff 6 800] ------- [6:255 -1:255 32 0] 
r 12.190236782 _4_ RTR  --- 16 message 32 [0 ffffffff 6 800] ------- [6:255 -1:255 32 0] 
r 12.190236793 _1_ RTR  --- 16 message 32 [0 ffffffff 6 800] ------- [6:255 -1:255 32 0] 
r 12.190237019 _2_ RTR  --- 16 message 32 [0 ffffffff 6 800] ------- [6:255 -1:255 32 0] 
r 12.190237022 _7_ RTR  --- 16 message 32 [0 ffffffff 6 800] ------- [6:255 -1:255 32 0] 
s 12.448357075 _0_ RTR  --- 17 message 32 [0 0 0 0] ------- [0:255 -1:255 32 0] 
s 12.448712075 _0_ MAC  --- 17 message 90 [0 ffffffff 0 800] ------- [0:255 -1:255 32 0] 
r 12.449432824 _2_ MAC  --- 17 message 32 [0 ffffffff 0 800] ------- [0:255 -1:255 32 0] 
r 12.449432853 _1_ MAC  --- 17 message 32 [0 ffffffff 0 800] ------- [0:255 -1:255 32 0] 
r 12.449457824 _2_ RTR  --- 17 message 32 [0 ffffffff 0 800] ------- [0:255 -1:255 32 0] 
r 12.449457853 _1_ RTR  --- 17 message 32 [0 ffffffff 0 800] ------- [0:255 -1:255 32 0] 
s 12.480101570 _1_ RTR  --- 19 message 32 [0 0 0 0] ------- [1:255 -1:255 32 0] 
s 12.480476570 _1_ MAC  --- 19 message 90 [0 ffffffff 1 800] ------- [1:255 -1:255 32 0] 
r 12.481197071 _6_ MAC  --- 19 message 32 [0 ffffffff 1 800] ------- [1:255 -1:255 32 0] 
r 12.481197271 _2_ MAC  --- 19 message 32 [0 ffffffff 1 800] ------- [1:255 -1:255 32 0] 
r 12.481197348 _0_ MAC  --- 19 message 32 [0 ffffffff 1 800] ------- [1:255 -1:255 32 0] 
r 12.481222071 _6_ RTR  --- 19 message 32 [0 ffffffff 1 800] ------- [1:255 -1:255 32 0] 
r 12.481222271 _2_ RTR  --- 19 message 32 [0 ffffffff 1 800] ------- [1:255 -1:255 32 0] 
r 12.481222348 _0_ RTR  --- 19 message 32 [0 ffffffff 1 800] ------- [1:255 -1:255 32 0] 
s 12.485263652 _4_ RTR  --- 18 message 32 [0 0 0 0] ------- [4:255 -1:255 32 0] 
s 12.485798652 _4_ MAC  --- 18 message 90 [0 ffffffff 4 800] ------- [4:255 -1:255 32 0] 
r 12.486519019 _7_ MAC  --- 18 message 32 [0 ffffffff 4 800] ------- [4:255 -1:255 32 0] 
r 12.486519137 _5_ MAC  --- 18 message 32 [0 ffffffff 4 800] ------- [4:255 -1:255 32 0] 
r 12.486519143 _6_ MAC  --- 18 message 32 [0 ffffffff 4 800] ------- [4:255 -1:255 32 0] 
r 12.486519405 _8_ MAC  --- 18 message 32 [0 ffffffff 4 800] ------- [4:255 -1:255 32 0] 
r 12.486519435 _2_ MAC  --- 18 message 32 [0 ffffffff 4 800] ------- [4:255 -1:255 32 0] 
r 12.486544019 _7_ RTR  --- 18 message 32 [0 ffffffff 4 800] ------- [4:255 -1:255 32 0] 
r 12.486544137 _5_ RTR  --- 18 message 32 [0 ffffffff 4 800] ------- [4:255 -1:255 32 0] 
r 12.486544143 _6_ RTR  --- 18 message 32 [0 ffffffff 4 800] ------- [4:255 -1:255 32 0] 
r 12.486544405 _8_ RTR  --- 18 message 32 [0 ffffffff 4 800] ------- [4:255 -1:255 32 0] 
r 12.486544435 _2_ RTR  --- 18 message 32 [0 ffffffff 4 800] ------- [4:255 -1:255 32 0] 
s 12.488074587 _7_ RTR  --- 20 message 32 [0 0 0 0] ------- [7:255 -1:255 32 0] 
s 12.488349587 _7_ MAC  --- 20 message 90 [0 ffffffff 7 800] ------- [7:255 -1:255 32 0] 
r 12.489069953 _4_ MAC  --- 20 message 32 [0 ffffffff 7 800] ------- [7:255 -1:255 32 0] 
r 12.489070212 _8_ MAC  --- 20 message 32 [0 ffffffff 7 800] ------- [7:255 -1:255 32 0] 
r 12.489070317 _6_ MAC  --- 20 message 32 [0 ffffffff 7 800] ------- [7:255 -1:255 32 0] 
r 12.489070323 _5_ MAC  --- 20 message 32 [0 ffffffff 7 800] ------- [7:255 -1:255 32 0] 
r 12.489094953 _4_ RTR  --- 20 message 32 [0 ffffffff 7 800] ------- [7:255 -1:255 32 0] 
r 12.489095212 _8_ RTR  --- 20 message 32 [0 ffffffff 7 800] ------- [7:255 -1:255 32 0] 
r 12.489095317 _6_ RTR  --- 20 message 32 [0 ffffffff 7 800] ------- [7:255 -1:255 32 0] 
r 12.489095323 _5_ RTR  --- 20 message 32 [0 ffffffff 7 800] ------- [7:255 -1:255 32 0] 
s 12.625227042 _9_ RTR  --- 22 message 32 [0 0 0 0] ------- [9:255 -1:255 32 0] 
s 12.625502042 _9_ MAC  --- 22 message 90 [0 ffffffff 9 800] ------- [9:255 -1:255 32 0] 
r 12.626222480 _8_ MAC  --- 22 message 32 [0 ffffffff 9 800] ------- [9:255 -1:255 32 0] 
r 12.626222825 _5_ MAC  --- 22 message 32 [0 ffffffff 9 800] ------- [9:255 -1:255 32 0] 
r 12.626247480 _8_ RTR  --- 22 message 32 [0 ffffffff 9 800] ------- [9:255 -1:255 32 0] 
r 12.626247825 _5_ RTR  --- 22 message 32 [0 ffffffff 9 800] ------- [9:255 -1:255 32 0] 
s 12.628557160 _5_ RTR  --- 21 message 32 [0 0 0 0] ------- [5:255 -1:255 32 0] 
s 12.628972160 _5_ MAC  --- 21 message 90 [0 ffffffff 5 800] ------- [5:255 -1:255 32 0] 
r 12.629692640 _3_ MAC  --- 21 message 32 [0 ffffffff 5 800] ------- [5:255 -1:255 32 0] 
r 12.629692645 _4_ MAC  --- 21 message 32 [0 ffffffff 5 800] ------- [5:255 -1:255 32 0] 
r 12.629692847 _8_ MAC  --- 21 message 32 [0 ffffffff 5 800] ------- [5:255 -1:255 32 0] 
r 12.629692851 _2_ MAC  --- 21 message 32 [0 ffffffff 5 800] ------- [5:255 -1:255 32 0] 
r 12.629692897 _7_ MAC  --- 21 message 32 [0 ffffffff 5 800] ------- [5:255 -1:255 32 0] 
r 12.629692943 _9_ MAC  --- 21 message 32 [0 ffffffff 5 800] ------- [5:255 -1:255 32 0] 
r 12.629717640 _3_ RTR  --- 21 message 32 [0 ffffffff 5 800] ------- [5:255 -1:255 32 0] 
r 12.629717645 _4_ RTR  --- 21 message 32 [0 ffffffff 5 800] ------- [5:255 -1:255 32 0] 
r 12.629717847 _8_ RTR  --- 21 message 32 [0 ffffffff 5 800] ------- [5:255 -1:255 32 0] 
r 12.629717851 _2_ RTR  --- 21 message 32 [0 ffffffff 5 800] ------- [5:255 -1:255 32 0] 
r 12.629717897 _7_ RTR  --- 21 message 32 [0 ffffffff 5 800] ------- [5:255 -1:255 32 0] 
r 12.629717943 _9_ RTR  --- 21 message 32 [0 ffffffff 5 800] ------- [5:255 -1:255 32 0] 
s 12.641363672 _8_ RTR  --- 23 message 32 [0 0 0 0] ------- [8:255 -1:255 32 0] 
s 12.641498672 _8_ MAC  --- 23 message 90 [0 ffffffff 8 800] ------- [8:255 -1:255 32 0] 
r 12.642219110 _9_ MAC  --- 23 message 32 [0 ffffffff 8 800] ------- [8:255 -1:255 32 0] 
r 12.642219298 _7_ MAC  --- 23 message 32 [0 ffffffff 8 800] ------- [8:255 -1:255 32 0] 
r 12.642219359 _5_ MAC  --- 23 message 32 [0 ffffffff 8 800] ------- [8:255 -1:255 32 0] 
r 12.642219425 _4_ MAC  --- 23 message 32 [0 ffffffff 8 800] ------- [8:255 -1:255 32 0] 
r 12.642244110 _9_ RTR  --- 23 message 32 [0 ffffffff 8 800] ------- [8:255 -1:255 32 0] 
r 12.642244298 _7_ RTR  --- 23 message 32 [0 ffffffff 8 800] ------- [8:255 -1:255 32 0] 
r 12.642244359 _5_ RTR  --- 23 message 32 [0 ffffffff 8 800] ------- [8:255 -1:255 32 0] 
r 12.642244425 _4_ RTR  --- 23 message 32 [0 ffffffff 8 800] ------- [8:255 -1:255 32 0] 
s 12.693832102 _4_ RTR  --- 24 message 56 [0 0 0 0] ------- [4:255 -1:255 32 0] 
s 12.694347102 _4_ MAC  --- 24 message 114 [0 ffffffff 4 800] ------- [4:255 -1:255 32 0] 
r 12.695259469 _7_ MAC  --- 24 message 56 [0 ffffffff 4 800] ------- [4:255 -1:255 32 0] 
r 12.695259587 _5_ MAC  --- 24 message 56 [0 ffffffff 4 800] ------- [4:255 -1:255 32 0] 
r 12.695259592 _6_ MAC  --- 24 message 56 [0 ffffffff 4 800] ------- [4:255 -1:255 32 0] 
r 12.695259854 _8_ MAC  --- 24 message 56 [0 ffffffff 4 800] ------- [4:255 -1:255 32 0] 
r 12.695259879 _2_ MAC  --- 24 message 56 [0 ffffffff 4 800] ------- [4:255 -1:255 32 0] 
r 12.695284469 _7_ RTR  --- 24 message 56 [0 ffffffff 4 800] ------- [4:255 -1:255 32 0] 
r 12.695284587 _5_ RTR  --- 24 message 56 [0 ffffffff 4 800] ------- [4:255 -1:255 32 0] 
r 12.695284592 _6_ RTR  --- 24 message 56 [0 ffffffff 4 800] ------- [4:255 -1:255 32 0] 
r 12.695284854 _8_ RTR  --- 24 message 56 [0 ffffffff 4 800] ------- [4:255 -1:255 32 0] 
r 12.695284879 _2_ RTR  --- 24 message 56 [0 ffffffff 4 800] ------- [4:255 -1:255 32 0] 
s 12.896716184 _3_ RTR  --- 25 message 32 [0 0 0 0] ------- [3:255 -1:255 32 0] 
s 12.897091184 _3_ MAC  --- 25 message 90 [0 ffffffff 3 800] ------- [3:255 -1:255 32 0] 
r 12.897811663 _5_ MAC  --- 25 message 32 [0 ffffffff 3 800] ------- [3:255 -1:255 32 0] 
r 12.897811890 _2_ MAC  --- 25 message 32 [0 ffffffff 3 800] ------- [3:255 -1:255 32 0] 
r 12.897836663 _5_ RTR  --- 25 message 32 [0 ffffffff 3 800] ------- [3:255 -1:255 32 0] 
r 12.897836890 _2_ RTR  --- 25 message 32 [0 ffffffff 3 800] ------- [3:255 -1:255 32 0] 
s 13.020419334 _1_ RTR  --- 26 message 44 [0 0 0 0] ------- [1:255 -1:255 32 0] 
s 13.021074334 _1_ MAC  --- 26 message 102 [0 ffffffff 1 800] ------- [1:255 -1:255 32 0] 
r 13.021890836 _6_ MAC  --- 26 message 44 [0 ffffffff 1 800] ------- [1:255 -1:255 32 0] 
r 13.021891029 _2_ MAC  --- 26 message 44 [0 ffffffff 1 800] ------- [1:255 -1:255 32 0] 
r 13.021891112 _0_ MAC  --- 26 message 44 [0 ffffffff 1 800] ------- [1:255 -1:255 32 0] 
r 13.021915836 _6_ RTR  --- 26 message 44 [0 ffffffff 1 800] ------- [1:255 -1:255 32 0] 
r 13.021916029 _2_ RTR  --- 26 message 44 [0 ffffffff 1 800] ------- [1:255 -1:255 32 0] 
r 13.021916112 _0_ RTR  --- 26 message 44 [0 ffffffff 1 800] ------- [1:255 -1:255 32 0] 
s 13.030304494 _6_ RTR  --- 27 message 32 [0 0 0 0] ------- [6:255 -1:255 32 0] 
s 13.030819494 _6_ MAC  --- 27 message 90 [0 ffffffff 6 800] ------- [6:255 -1:255 32 0] 
r 13.031539984 _4_ MAC  --- 27 message 32 [0 ffffffff 6 800] ------- [6:255 -1:255 32 0] 
r 13.031539996 _1_ MAC  --- 27 message 32 [0 ffffffff 6 800] ------- [6:255 -1:255 32 0] 
r 13.031540203 _2_ MAC  --- 27 message 32 [0 ffffffff 6 800] ------- [6:255 -1:255 32 0] 
r 13.031540224 _7_ MAC  --- 27 message 32 [0 ffffffff 6 800] ------- [6:255 -1:255 32 0] 
r 13.031564984 _4_ RTR  --- 27 message 32 [0 ffffffff 6 800] ------- [6:255 -1:255 32 0] 
r 13.031564996 _1_ RTR  --- 27 message 32 [0 ffffffff 6 800] ------- [6:255 -1:255 32 0] 
r 13.031565203 _2_ RTR  --- 27 message 32 [0 ffffffff 6 800] ------- [6:255 -1:255 32 0] 
r 13.031565224 _7_ RTR  --- 27 message 32 [0 ffffffff 6 800] ------- [6:255 -1:255 32 0] 
s 13.234002417 _7_ RTR  --- 28 message 44 [0 0 0 0] ------- [7:255 -1:255 32 0] 
s 13.234297417 _7_ MAC  --- 28 message 102 [0 ffffffff 7 800] ------- [7:255 -1:255 32 0] 
r 13.235113783 _4_ MAC  --- 28 message 44 [0 ffffffff 7 800] ------- [7:255 -1:255 32 0] 
r 13.235114042 _8_ MAC  --- 28 message 44 [0 ffffffff 7 800] ------- [7:255 -1:255 32 0] 
r 13.235114147 _6_ MAC  --- 28 message 44 [0 ffffffff 7 800] ------- [7:255 -1:255 32 0] 
r 13.235114153 _5_ MAC  --- 28 message 44 [0 ffffffff 7 800] ------- [7:255 -1:255 32 0] 
r 13.235138783 _4_ RTR  --- 28 message 44 [0 ffffffff 7 800] ------- [7:255 -1:255 32 0] 
r 13.235139042 _8_ RTR  --- 28 message 44 [0 ffffffff 7 800] ------- [7:255 -1:255 32 0] 
r 13.235139147 _6_ RTR  --- 28 message 44 [0 ffffffff 7 800] ------- [7:255 -1:255 32 0] 
r 13.235139153 _5_ RTR  --- 28 message 44 [0 ffffffff 7 800] ------- [7:255 -1:255 32 0] 
s 13.277240916 _3_ RTR  --- 29 message 44 [0 0 0 0] ------- [3:255 -1:255 32 0] 
s 13.277635916 _3_ MAC  --- 29 message 102 [0 ffffffff 3 800] ------- [3:255 -1:255 32 0] 
r 13.278452395 _5_ MAC  --- 29 message 44 [0 ffffffff 3 800] ------- [3:255 -1:255 32 0] 
r 13.278452622 _2_ MAC  --- 29 message 44 [0 ffffffff 3 800] ------- [3:255 -1:255 32 0] 
r 13.278477395 _5_ RTR  --- 29 message 44 [0 ffffffff 3 800] ------- [3:255 -1:255 32 0] 
r 13.278477622 _2_ RTR  --- 29 message 44 [0 ffffffff 3 800] ------- [3:255 -1:255 32 0] 
s 13.439208327 _0_ RTR  --- 30 message 32 [0 0 0 0] ------- [0:255 -1:255 32 0] 
s 13.439603327 _0_ MAC  --- 30 message 90 [0 ffffffff 0 800] ------- [0:255 -1:255 32 0] 
r 13.440324080 _2_ MAC  --- 30 message 32 [0 ffffffff 0 800] ------- [0:255 -1:255 32 0] 
r 13.440324105 _1_ MAC  --- 30 message 32 [0 ffffffff 0 800] ------- [0:255 -1:255 32 0] 
r 13.440349080 _2_ RTR  --- 30 message 32 [0 ffffffff 0 800] ------- [0:255 -1:255 32 0] 
r 13.440349105 _1_ RTR  --- 30 message 32 [0 ffffffff 0 800] ------- [0:255 -1:255 32 0] 
s 13.623989161 _8_ RTR  --- 32 message 32 [0 0 0 0] ------- [8:255 -1:255 32 0] 
s 13.624164161 _8_ MAC  --- 32 message 90 [0 ffffffff 8 800] ------- [8:255 -1:255 32 0] 
r 13.624884598 _9_ MAC  --- 32 message 32 [0 ffffffff 8 800] ------- [8:255 -1:255 32 0] 
r 13.624884786 _7_ MAC  --- 32 message 32 [0 ffffffff 8 800] ------- [8:255 -1:255 32 0] 
r 13.624884847 _5_ MAC  --- 32 message 32 [0 ffffffff 8 800] ------- [8:255 -1:255 32 0] 
r 13.624884913 _4_ MAC  --- 32 message 32 [0 ffffffff 8 800] ------- [8:255 -1:255 32 0] 
r 13.624909598 _9_ RTR  --- 32 message 32 [0 ffffffff 8 800] ------- [8:255 -1:255 32 0] 
r 13.624909786 _7_ RTR  --- 32 message 32 [0 ffffffff 8 800] ------- [8:255 -1:255 32 0] 
r 13.624909847 _5_ RTR  --- 32 message 32 [0 ffffffff 8 800] ------- [8:255 -1:255 32 0] 
r 13.624909913 _4_ RTR  --- 32 message 32 [0 ffffffff 8 800] ------- [8:255 -1:255 32 0] 
s 13.626421111 _5_ RTR  --- 33 message 32 [0 0 0 0] ------- [5:255 -1:255 32 0] 
s 13.627016111 _5_ MAC  --- 33 message 90 [0 ffffffff 5 800] ------- [5:255 -1:255 32 0] 
r 13.627736590 _3_ MAC  --- 33 message 32 [0 ffffffff 5 800] ------- [5:255 -1:255 32 0] 
r 13.627736596 _4_ MAC  --- 33 message 32 [0 ffffffff 5 800] ------- [5:255 -1:255 32 0] 
r 13.627736798 _8_ MAC  --- 33 message 32 [0 ffffffff 5 800] ------- [5:255 -1:255 32 0] 
r 13.627736801 _2_ MAC  --- 33 message 32 [0 ffffffff 5 800] ------- [5:255 -1:255 32 0] 
r 13.627736848 _7_ MAC  --- 33 message 32 [0 ffffffff 5 800] ------- [5:255 -1:255 32 0] 
r 13.627736894 _9_ MAC  --- 33 message 32 [0 ffffffff 5 800] ------- [5:255 -1:255 32 0] 
r 13.627761590 _3_ RTR  --- 33 message 32 [0 ffffffff 5 800] ------- [5:255 -1:255 32 0] 
r 13.627761596 _4_ RTR  --- 33 message 32 [0 ffffffff 5 800] ------- [5:255 -1:255 32 0] 
r 13.627761798 _8_ RTR  --- 33 message 32 [0 ffffffff 5 800] ------- [5:255 -1:255 32 0] 
r 13.627761801 _2_ RTR  --- 33 message 32 [0 ffffffff 5 800] ------- [5:255 -1:255 32 0] 
r 13.627761848 _7_ RTR  --- 33 message 32 [0 ffffffff 5 800] ------- [5:255 -1:255 32 0] 
r 13.627761894 _9_ RTR  --- 33 message 32 [0 ffffffff 5 800] ------- [5:255 -1:255 32 0] 
s 13.643314959 _9_ RTR  --- 34 message 32 [0 0 0 0] ------- [9:255 -1:255 32 0] 
s 13.643409959 _9_ MAC  --- 34 message 90 [0 ffffffff 9 800] ------- [9:255 -1:255 32 0] 
r 13.644130396 _8_ MAC  --- 34 message 32 [0 ffffffff 9 800] ------- [9:255 -1:255 32 0] 
r 13.644130741 _5_ MAC  --- 34 message 32 [0 ffffffff 9 800] ------- [9:255 -1:255 32 0] 
r 13.644155396 _8_ RTR  --- 34 message 32 [0 ffffffff 9 800] ------- [9:255 -1:255 32 0] 
r 13.644155741 _5_ RTR  --- 34 message 32 [0 ffffffff 9 800] ------- [9:255 -1:255 32 0] 
s 13.692413036 _4_ RTR  --- 35 message 32 [0 0 0 0] ------- [4:255 -1:255 32 0] 
s 13.692748036 _4_ MAC  --- 35 message 90 [0 ffffffff 4 800] ------- [4:255 -1:255 32 0] 
r 13.693468403 _7_ MAC  --- 35 message 32 [0 ffffffff 4 800] ------- [4:255 -1:255 32 0] 
r 13.693468521 _5_ MAC  --- 35 message 32 [0 ffffffff 4 800] ------- [4:255 -1:255 32 0] 
r 13.693468527 _6_ MAC  --- 35 message 32 [0 ffffffff 4 800] ------- [4:255 -1:255 32 0] 
r 13.693468789 _8_ MAC  --- 35 message 32 [0 ffffffff 4 800] ------- [4:255 -1:255 32 0] 
r 13.693468812 _2_ MAC  --- 35 message 32 [0 ffffffff 4 800] ------- [4:255 -1:255 32 0] 
r 13.693493403 _7_ RTR  --- 35 message 32 [0 ffffffff 4 800] ------- [4:255 -1:255 32 0] 
r 13.693493521 _5_ RTR  --- 35 message 32 [0 ffffffff 4 800] ------- [4:255 -1:255 32 0] 
r 13.693493527 _6_ RTR  --- 35 message 32 [0 ffffffff 4 800] ------- [4:255 -1:255 32 0] 
r 13.693493789 _8_ RTR  --- 35 message 32 [0 ffffffff 4 800] ------- [4:255 -1:255 32 0] 
r 13.693493812 _2_ RTR  --- 35 message 32 [0 ffffffff 4 800] ------- [4:255 -1:255 32 0] 
M 14.00000 2 (1424.00, 1740.00, 0.00), (1361.00, 1839.00), 10.00
M 14.00000 5 (1625.00, 1789.00, 0.00), (1733.00, 1808.00), 10.00
s 14.145762238 _5_ RTR  --- 37 message 44 [0 0 0 0] ------- [5:255 -1:255 32 0] 
s 14.146277238 _5_ MAC  --- 37 message 102 [0 ffffffff 5 800] ------- [5:255 -1:255 32 0] 
r 14.147093719 _3_ MAC  --- 37 message 44 [0 ffffffff 5 800] ------- [5:255 -1:255 32 0] 
r 14.147093723 _4_ MAC  --- 37 message 44 [0 ffffffff 5 800] ------- [5:255 -1:255 32 0] 
r 14.147093919 _8_ MAC  --- 37 message 44 [0 ffffffff 5 800] ------- [5:255 -1:255 32 0] 
r 14.147093934 _2_ MAC  --- 37 message 44 [0 ffffffff 5 800] ------- [5:255 -1:255 32 0] 
r 14.147093972 _7_ MAC  --- 37 message 44 [0 ffffffff 5 800] ------- [5:255 -1:255 32 0] 
r 14.147094016 _9_ MAC  --- 37 message 44 [0 ffffffff 5 800] ------- [5:255 -1:255 32 0] 
r 14.147118719 _3_ RTR  --- 37 message 44 [0 ffffffff 5 800] ------- [5:255 -1:255 32 0] 
r 14.147118723 _4_ RTR  --- 37 message 44 [0 ffffffff 5 800] ------- [5:255 -1:255 32 0] 
r 14.147118919 _8_ RTR  --- 37 message 44 [0 ffffffff 5 800] ------- [5:255 -1:255 32 0] 
r 14.147118934 _2_ RTR  --- 37 message 44 [0 ffffffff 5 800] ------- [5:255 -1:255 32 0] 
r 14.147118972 _7_ RTR  --- 37 message 44 [0 ffffffff 5 800] ------- [5:255 -1:255 32 0] 
r 14.147119016 _9_ RTR  --- 37 message 44 [0 ffffffff 5 800] ------- [5:255 -1:255 32 0] 
s 14.622321776 _8_ RTR  --- 40 message 32 [0 0 0 0] ------- [8:255 -1:255 32 0] 
s 14.622716776 _8_ MAC  --- 40 message 90 [0 ffffffff 8 800] ------- [8:255 -1:255 32 0] 
r 14.623437213 _9_ MAC  --- 40 message 32 [0 ffffffff 8 800] ------- [8:255 -1:255 32 0] 
r 14.623437402 _7_ MAC  --- 40 message 32 [0 ffffffff 8 800] ------- [8:255 -1:255 32 0] 
r 14.623437443 _5_ MAC  --- 40 message 32 [0 ffffffff 8 800] ------- [8:255 -1:255 32 0] 
r 14.623437528 _4_ MAC  --- 40 message 32 [0 ffffffff 8 800] ------- [8:255 -1:255 32 0] 
r 14.623462213 _9_ RTR  --- 40 message 32 [0 ffffffff 8 800] ------- [8:255 -1:255 32 0] 
r 14.623462402 _7_ RTR  --- 40 message 32 [0 ffffffff 8 800] ------- [8:255 -1:255 32 0] 
r 14.623462443 _5_ RTR  --- 40 message 32 [0 ffffffff 8 800] ------- [8:255 -1:255 32 0] 
r 14.623462528 _4_ RTR  --- 40 message 32 [0 ffffffff 8 800] ------- [8:255 -1:255 32 0] 
s 14.993071769 _2_ RTR  --- 41 message 32 [0 0 0 0] ------- [2:255 -1:255 32 0] 
s 14.993286769 _2_ MAC  --- 41 message 90 [0 ffffffff 2 800] ------- [2:255 -1:255 32 0] 
r 14.994007463 _3_ MAC  --- 41 message 32 [0 ffffffff 2 800] ------- [2:255 -1:255 32 0] 
r 14.994007487 _1_ MAC  --- 41 message 32 [0 ffffffff 2 800] ------- [2:255 -1:255 32 0] 
r 14.994007503 _5_ MAC  --- 41 message 32 [0 ffffffff 2 800] ------- [2:255 -1:255 32 0] 
r 14.994007510 _0_ MAC  --- 41 message 32 [0 ffffffff 2 800] ------- [2:255 -1:255 32 0] 
r 14.994007511 _6_ MAC  --- 41 message 32 [0 ffffffff 2 800] ------- [2:255 -1:255 32 0] 
r 14.994007572 _4_ MAC  --- 41 message 32 [0 ffffffff 2 800] ------- [2:255 -1:255 32 0] 
r 14.994032463 _3_ RTR  --- 41 message 32 [0 ffffffff 2 800] ------- [2:255 -1:255 32 0] 
r 14.994032487 _1_ RTR  --- 41 message 32 [0 ffffffff 2 800] ------- [2:255 -1:255 32 0] 
r 14.994032503 _5_ RTR  --- 41 message 32 [0 ffffffff 2 800] ------- [2:255 -1:255 32 0] 
r 14.994032510 _0_ RTR  --- 41 message 32 [0 ffffffff 2 800] ------- [2:255 -1:255 32 0] 
r 14.994032511 _6_ RTR  --- 41 message 32 [0 ffffffff 2 800] ------- [2:255 -1:255 32 0] 
r 14.994032572 _4_ RTR  --- 41 message 32 [0 ffffffff 2 800] ------- [2:255 -1:255 32 0] 
s 15.543066709 _9_ RTR  --- 43 message 32 [0 0 0 0] ------- [9:255 -1:255 32 0] 
s 15.543141709 _9_ MAC  --- 43 message 90 [0 ffffffff 9 800] ------- [9:255 -1:255 32 0] 
r 15.543862146 _8_ MAC  --- 43 message 32 [0 ffffffff 9 800] ------- [9:255 -1:255 32 0] 
r 15.543862442 _5_ MAC  --- 43 message 32 [0 ffffffff 9 800] ------- [9:255 -1:255 32 0] 
r 15.543887146 _8_ RTR  --- 43 message 32 [0 ffffffff 9 800] ------- [9:255 -1:255 32 0] 
r 15.543887442 _5_ RTR  --- 43 message 32 [0 ffffffff 9 800] ------- [9:255 -1:255 32 0] 
22.00000 0  0  9  0  ssthresh_ 0
22.00000 0  0  9  0  ssthresh_ 2
s 22.000000000 _0_ AGT  --- 44 tcp 40 [0 0 0 0] ------- [0:0 9:0 32 0] [0 -1] 0 0
r 22.000000000 _0_ RTR  --- 44 tcp 40 [0 0 0 0] ------- [0:0 9:0 32 0] [0 -1] 0 0
s 24.190823761 _4_ RTR  --- 45 message 80 [0 0 0 0] ------- [4:255 -1:255 32 0] 
s 24.191138761 _4_ MAC  --- 45 message 138 [0 ffffffff 4 800] ------- [4:255 -1:255 32 0] 
r 24.192243128 _7_ MAC  --- 45 message 80 [0 ffffffff 4 800] ------- [4:255 -1:255 32 0] 
r 24.192243251 _6_ MAC  --- 45 message 80 [0 ffffffff 4 800] ------- [4:255 -1:255 32 0] 
r 24.192243380 _5_ MAC  --- 45 message 80 [0 ffffffff 4 800] ------- [4:255 -1:255 32 0] 
r 24.192243513 _8_ MAC  --- 45 message 80 [0 ffffffff 4 800] ------- [4:255 -1:255 32 0] 
r 24.192268128 _7_ RTR  --- 45 message 80 [0 ffffffff 4 800] ------- [4:255 -1:255 32 0] 
r 24.192268251 _6_ RTR  --- 45 message 80 [0 ffffffff 4 800] ------- [4:255 -1:255 32 0] 
r 24.192268380 _5_ RTR  --- 45 message 80 [0 ffffffff 4 800] ------- [4:255 -1:255 32 0] 
r 24.192268513 _8_ RTR  --- 45 message 80 [0 ffffffff 4 800] ------- [4:255 -1:255 32 0] 
s 24.194571125 _7_ RTR  --- 47 message 80 [0 0 0 0] ------- [7:255 -1:255 32 0] 
s 24.194746125 _7_ MAC  --- 47 message 138 [0 ffffffff 7 800] ------- [7:255 -1:255 32 0] 
r 24.195850492 _4_ MAC  --- 47 message 80 [0 ffffffff 7 800] ------- [7:255 -1:255 32 0] 
r 24.195850750 _8_ MAC  --- 47 message 80 [0 ffffffff 7 800] ------- [7:255 -1:255 32 0] 
r 24.195850821 _5_ MAC  --- 47 message 80 [0 ffffffff 7 800] ------- [7:255 -1:255 32 0] 
r 24.195850855 _6_ MAC  --- 47 message 80 [0 ffffffff 7 800] ------- [7:255 -1:255 32 0] 
r 24.195875492 _4_ RTR  --- 47 message 80 [0 ffffffff 7 800] ------- [7:255 -1:255 32 0] 
r 24.195875750 _8_ RTR  --- 47 message 80 [0 ffffffff 7 800] ------- [7:255 -1:255 32 0] 