0.00000  -1 -1 -1 -1 cwnd_ 1.000 
0.00000  -1 -1 -1 -1 ssthresh_ 20
0.00000  -1 -1 -1 -1 ack_ -1
0.00000  -1 -1 -1 -1 maxseq_ -1
s 0.030050775 _0_ RTR  --- 0 message 32 [0 0 0 0] ------- [0:255 -1:255 32 0] 
s 0.030285775 _0_ MAC  --- 0 message 90 [0 ffffffff 0 800] ------- [0:255 -1:255 32 0] 
r 0.031006484 _2_ MAC  --- 0 message 32 [0 ffffffff 0 800] ------- [0:255 -1:255 32 0] 
r 0.031006554 _1_ MAC  --- 0 message 32 [0 ffffffff 0 800] ------- [0:255 -1:255 32 0] 
r 0.031031484 _2_ RTR  --- 0 message 32 [0 ffffffff 0 800] ------- [0:255 -1:255 32 0] 
r 0.031031554 _1_ RTR  --- 0 message 32 [0 ffffffff 0 800] ------- [0:255 -1:255 32 0] 
s 0.184842620 _1_ RTR  --- 1 message 32 [0 0 0 0] ------- [1:255 -1:255 32 0] 
s 0.185397620 _1_ MAC  --- 1 message 90 [0 ffffffff 1 800] ------- [1:255 -1:255 32 0] 
r 0.186118121 _6_ MAC  --- 1 message 32 [0 ffffffff 1 800] ------- [1:255 -1:255 32 0] 
r 0.186118398 _0_ MAC  --- 1 message 32 [0 ffffffff 1 800] ------- [1:255 -1:255 32 0] 
r 0.186143121 _6_ RTR  --- 1 message 32 [0 ffffffff 1 800] ------- [1:255 -1:255 32 0] 
r 0.186143398 _0_ RTR  --- 1 message 32 [0 ffffffff 1 800] ------- [1:255 -1:255 32 0] 
s 0.477273789 _6_ RTR  --- 2 message 32 [0 0 0 0] ------- [6:255 -1:255 32 0] 
s 0.477568789 _6_ MAC  --- 2 message 90 [0 ffffffff 6 800] ------- [6:255 -1:255 32 0] 
r 0.478289280 _4_ MAC  --- 2 message 32 [0 ffffffff 6 800] ------- [6:255 -1:255 32 0] 
r 0.478289291 _1_ MAC  --- 2 message 32 [0 ffffffff 6 800] ------- [6:255 -1:255 32 0] 
r 0.478289520 _7_ MAC  --- 2 message 32 [0 ffffffff 6 800] ------- [6:255 -1:255 32 0] 
r 0.478314280 _4_ RTR  --- 2 message 32 [0 ffffffff 6 800] ------- [6:255 -1:255 32 0] 
r 0.478314291 _1_ RTR  --- 2 message 32 [0 ffffffff 6 800] ------- [6:255 -1:255 32 0] 
r 0.478314520 _7_ RTR  --- 2 message 32 [0 ffffffff 6 800] ------- [6:255 -1:255 32 0] 
s 0.623344604 _8_ RTR  --- 3 message 32 [0 0 0 0] ------- [8:255 -1:255 32 0] 
s 0.623599604 _8_ MAC  --- 3 message 90 [0 ffffffff 8 800] ------- [8:255 -1:255 32 0] 
r 0.624319960 _5_ MAC  --- 3 message 32 [0 ffffffff 8 800] ------- [8:255 -1:255 32 0] 
r 0.624320041 _9_ MAC  --- 3 message 32 [0 ffffffff 8 800] ------- [8:255 -1:255 32 0] 
r 0.624320229 _7_ MAC  --- 3 message 32 [0 ffffffff 8 800] ------- [8:255 -1:255 32 0] 
r 0.624320356 _4_ MAC  --- 3 message 32 [0 ffffffff 8 800] ------- [8:255 -1:255 32 0] 
r 0.624344960 _5_ RTR  --- 3 message 32 [0 ffffffff 8 800] ------- [8:255 -1:255 32 0] 
r 0.624345041 _9_ RTR  --- 3 message 32 [0 ffffffff 8 800] ------- [8:255 -1:255 32 0] 
r 0.624345229 _7_ RTR  --- 3 message 32 [0 ffffffff 8 800] ------- [8:255 -1:255 32 0] 
r 0.624345356 _4_ RTR  --- 3 message 32 [0 ffffffff 8 800] ------- [8:255 -1:255 32 0] 
s 0.634321795 _4_ RTR  --- 4 message 32 [0 0 0 0] ------- [4:255 -1:255 32 0] 
s 0.634756795 _4_ MAC  --- 4 message 90 [0 ffffffff 4 800] ------- [4:255 -1:255 32 0] 
r 0.635477162 _7_ MAC  --- 4 message 32 [0 ffffffff 4 800] ------- [4:255 -1:255 32 0] 
r 0.635477286 _6_ MAC  --- 4 message 32 [0 ffffffff 4 800] ------- [4:255 -1:255 32 0] 
r 0.635477430 _5_ MAC  --- 4 message 32 [0 ffffffff 4 800] ------- [4:255 -1:255 32 0] 
r 0.635477548 _8_ MAC  --- 4 message 32 [0 ffffffff 4 800] ------- [4:255 -1:255 32 0] 
r 0.635502162 _7_ RTR  --- 4 message 32 [0 ffffffff 4 800] ------- [4:255 -1:255 32 0] 
r 0.635502286 _6_ RTR  --- 4 message 32 [0 ffffffff 4 800] ------- [4:255 -1:255 32 0] 
r 0.635502430 _5_ RTR  --- 4 message 32 [0 ffffffff 4 800] ------- [4:255 -1:255 32 0] 
r 0.635502548 _8_ RTR  --- 4 message 32 [0 ffffffff 4 800] ------- [4:255 -1:255 32 0] 
s 0.889120254 _2_ RTR  --- 5 message 32 [0 0 0 0] ------- [2:255 -1:255 32 0] 
s 0.889335254 _2_ MAC  --- 5 message 90 [0 ffffffff 2 800] ------- [2:255 -1:255 32 0] 
r 0.890055925 _3_ MAC  --- 5 message 32 [0 ffffffff 2 800] ------- [2:255 -1:255 32 0] 
r 0.890055962 _0_ MAC  --- 5 message 32 [0 ffffffff 2 800] ------- [2:255 -1:255 32 0] 
r 0.890080925 _3_ RTR  --- 5 message 32 [0 ffffffff 2 800] ------- [2:255 -1:255 32 0] 
r 0.890080962 _0_ RTR  --- 5 message 32 [0 ffffffff 2 800] ------- [2:255 -1:255 32 0] 
M 1.00000 2 (1361.00, 1839.00, 0.00), (1424.00, 1740.00), 10.00
M 1.00000 5 (1733.00, 1808.00, 0.00), (1625.00, 1789.00), 10.00
s 1.000000000 _0_ AGT  --- 6 tcp 2500 [0 0 0 0] ------- [0:0 9:0 32 0] [0 0] 0 0
r 1.000000000 _0_ RTR  --- 6 tcp 2500 [0 0 0 0] ------- [0:0 9:0 32 0] [0 0] 0 0
1.00000  0  0  9  0  maxseq_ 0
s 1.278822271 _7_ RTR  --- 7 message 32 [0 0 0 0] ------- [7:255 -1:255 32 0] 
s 1.278997271 _7_ MAC  --- 7 message 90 [0 ffffffff 7 800] ------- [7:255 -1:255 32 0] 
r 1.279717638 _4_ MAC  --- 7 message 32 [0 ffffffff 7 800] ------- [7:255 -1:255 32 0] 
r 1.279717897 _8_ MAC  --- 7 message 32 [0 ffffffff 7 800] ------- [7:255 -1:255 32 0] 
r 1.279717970 _5_ MAC  --- 7 message 32 [0 ffffffff 7 800] ------- [7:255 -1:255 32 0] 
r 1.279718002 _6_ MAC  --- 7 message 32 [0 ffffffff 7 800] ------- [7:255 -1:255 32 0] 
r 1.279742638 _4_ RTR  --- 7 message 32 [0 ffffffff 7 800] ------- [7:255 -1:255 32 0] 
r 1.279742897 _8_ RTR  --- 7 message 32 [0 ffffffff 7 800] ------- [7:255 -1:255 32 0] 
r 1.279742970 _5_ RTR  --- 7 message 32 [0 ffffffff 7 800] ------- [7:255 -1:255 32 0] 
r 1.279743002 _6_ RTR  --- 7 message 32 [0 ffffffff 7 800] ------- [7:255 -1:255 32 0] 
s 1.607773557 _3_ RTR  --- 8 message 32 [0 0 0 0] ------- [3:255 -1:255 32 0] 
s 1.608428557 _3_ MAC  --- 8 message 90 [0 ffffffff 3 800] ------- [3:255 -1:255 32 0] 
r 1.609149224 _2_ MAC  --- 8 message 32 [0 ffffffff 3 800] ------- [3:255 -1:255 32 0] 
r 1.609149244 _5_ MAC  --- 8 message 32 [0 ffffffff 3 800] ------- [3:255 -1:255 32 0] 
r 1.609174224 _2_ RTR  --- 8 message 32 [0 ffffffff 3 800] ------- [3:255 -1:255 32 0] 
r 1.609174244 _5_ RTR  --- 8 message 32 [0 ffffffff 3 800] ------- [3:255 -1:255 32 0] 
s 1.633060186 _5_ RTR  --- 9 message 32 [0 0 0 0] ------- [5:255 -1:255 32 0] 
s 1.633635186 _5_ MAC  --- 9 message 90 [0 ffffffff 5 800] ------- [5:255 -1:255 32 0] 
r 1.634355560 _8_ MAC  --- 9 message 32 [0 ffffffff 5 800] ------- [5:255 -1:255 32 0] 
r 1.634355648 _9_ MAC  --- 9 message 32 [0 ffffffff 5 800] ------- [5:255 -1:255 32 0] 
r 1.634355808 _4_ MAC  --- 9 message 32 [0 ffffffff 5 800] ------- [5:255 -1:255 32 0] 
r 1.634355873 _3_ MAC  --- 9 message 32 [0 ffffffff 5 800] ------- [5:255 -1:255 32 0] 
r 1.634355883 _7_ MAC  --- 9 message 32 [0 ffffffff 5 800] ------- [5:255 -1:255 32 0] 
r 1.634380560 _8_ RTR  --- 9 message 32 [0 ffffffff 5 800] ------- [5:255 -1:255 32 0] 
r 1.634380648 _9_ RTR  --- 9 message 32 [0 ffffffff 5 800] ------- [5:255 -1:255 32 0] 
r 1.634380808 _4_ RTR  --- 9 message 32 [0 ffffffff 5 800] ------- [5:255 -1:255 32 0] 
r 1.634380873 _3_ RTR  --- 9 message 32 [0 ffffffff 5 800] ------- [5:255 -1:255 32 0] 
r 1.634380883 _7_ RTR  --- 9 message 32 [0 ffffffff 5 800] ------- [5:255 -1:255 32 0] 
s 1.679333313 _9_ RTR  --- 10 message 32 [0 0 0 0] ------- [9:255 -1:255 32 0] 
s 1.679888313 _9_ MAC  --- 10 message 90 [0 ffffffff 9 800] ------- [9:255 -1:255 32 0] 
r 1.680608750 _8_ MAC  --- 10 message 32 [0 ffffffff 9 800] ------- [9:255 -1:255 32 0] 
r 1.680608776 _5_ MAC  --- 10 message 32 [0 ffffffff 9 800] ------- [9:255 -1:255 32 0] 
r 1.680633750 _8_ RTR  --- 10 message 32 [0 ffffffff 9 800] ------- [9:255 -1:255 32 0] 
r 1.680633776 _5_ RTR  --- 10 message 32 [0 ffffffff 9 800] ------- [9:255 -1:255 32 0] 
4.00000  0  0  9  0  ssthresh_ 0
4.00000  0  0  9  0  ssthresh_ 2
4.00000  0  0  9  0  cwnd_ 2.000 
s 4.000000000 _0_ AGT  --- 11 tcp 2500 [0 0 0 0] ------- [0:0 9:0 32 0] [0 0] 0 0
r 4.000000000 _0_ RTR  --- 11 tcp 2500 [0 0 0 0] ------- [0:0 9:0 32 0] [0 0] 0 0
s 4.000000000 _0_ AGT  --- 12 tcp 2500 [0 0 0 0] ------- [0:0 9:0 32 0] [1 0] 0 0
r 4.000000000 _0_ RTR  --- 12 tcp 2500 [0 0 0 0] ------- [0:0 9:0 32 0] [1 0] 0 0
4.00000  0  0  9  0  maxseq_ 1
10.00000 0  0  9  0  ssthresh_ 1
10.00000 0  0  9  0  cwnd_ 1.000 
10.00000 0  0  9  0  ssthresh_ 2
10.00000 0  0  9  0  cwnd_ 2.000 
s 10.000000000 _0_ AGT  --- 13 tcp 2500 [0 0 0 0] ------- [0:0 9:0 32 0] [0 0] 0 0
r 10.000000000 _0_ RTR  --- 13 tcp 2500 [0 0 0 0] ------- [0:0 9:0 32 0] [0 0] 0 0
s 10.000000000 _0_ AGT  --- 14 tcp 2500 [0 0 0 0] ------- [0:0 9:0 32 0] [1 0] 0 0
r 10.000000000 _0_ RTR  --- 14 tcp 2500 [0 0 0 0] ------- [0:0 9:0 32 0] [1 0] 0 0
s 11.447655470 _0_ RTR  --- 15 message 32 [0 0 0 0] ------- [0:255 -1:255 32 0] 
s 11.447890470 _0_ MAC  --- 15 message 90 [0 ffffffff 0 800] ------- [0:255 -1:255 32 0] 
r 11.448611208 _2_ MAC  --- 15 message 32 [0 ffffffff 0 800] ------- [0:255 -1:255 32 0] 
r 11.448611248 _1_ MAC  --- 15 message 32 [0 ffffffff 0 800] ------- [0:255 -1:255 32 0] 
r 11.448636208 _2_ RTR  --- 15 message 32 [0 ffffffff 0 800] ------- [0:255 -1:255 32 0] 
r 11.448636248 _1_ RTR  --- 15 message 32 [0 ffffffff 0 800] ------- [0:255 -1:255 32 0] 
s 12.186418696 _6_ RTR  --- 18 message 32 [0 0 0 0] ------- [6:255 -1:255 32 0] 
s 12.186793696 _6_ MAC  --- 18 message 90 [0 ffffffff 6 800] ------- [6:255 -1:255 32 0] 
r 12.187514187 _4_ MAC  --- 18 message 32 [0 ffffffff 6 800] ------- [6:255 -1:255 32 0] 
r 12.187514198 _1_ MAC  --- 18 message 32 [0 ffffffff 6 800] ------- [6:255 -1:255 32 0] 
r 12.187514424 _2_ MAC  --- 18 message 32 [0 ffffffff 6 800] ------- [6:255 -1:255 32 0] 
r 12.187514427 _7_ MAC  --- 18 message 32 [0 ffffffff 6 800] ------- [6:255 -1:255 32 0] 
r 12.187539187 _4_ RTR  --- 18 message 32 [0 ffffffff 6 800] ------- [6:255 -1:255 32 0] 
r 12.187539198 _1_ RTR  --- 18 message 32 [0 ffffffff 6 800] ------- [6:255 -1:255 32 0] 
r 12.187539424 _2_ RTR  --- 18 message 32 [0 ffffffff 6 800] ------- [6:255 -1:255 32 0] 
r 12.187539427 _7_ RTR  --- 18 message 32 [0 ffffffff 6 800] ------- [6:255 -1:255 32 0] 
s 12.446738784 _0_ RTR  --- 19 message 32 [0 0 0 0] ------- [0:255 -1:255 32 0] 
s 12.447113784 _0_ MAC  --- 19 message 90 [0 ffffffff 0 800] ------- [0:255 -1:255 32 0] 
r 12.447834533 _2_ MAC  --- 19 message 32 [0 ffffffff 0 800] ------- [0:255 -1:255 32 0] 
r 12.447834562 _1_ MAC  --- 19 message 32 [0 ffffffff 0 800] ------- [0:255 -1:255 32 0] 
r 12.447859533 _2_ RTR  --- 19 message 32 [0 ffffffff 0 800] ------- [0:255 -1:255 32 0] 
r 12.447859562 _1_ RTR  --- 19 message 32 [0 ffffffff 0 800] ------- [0:255 -1:255 32 0] 
s 12.480101798 _7_ RTR  --- 22 message 32 [0 0 0 0] ------- [7:255 -1:255 32 0] 
s 12.480296798 _7_ MAC  --- 22 message 90 [0 ffffffff 7 800] ------- [7:255 -1:255 32 0] 
s 12.480381620 _4_ RTR  --- 20 message 32 [0 0 0 0] ------- [4:255 -1:255 32 0] 
r 12.481017165 _4_ MAC  --- 22 message 32 [0 ffffffff 7 800] ------- [7:255 -1:255 32 0] 
r 12.481017424 _8_ MAC  --- 22 message 32 [0 ffffffff 7 800] ------- [7:255 -1:255 32 0] 
r 12.481017528 _6_ MAC  --- 22 message 32 [0 ffffffff 7 800] ------- [7:255 -1:255 32 0] 
r 12.481017534 _5_ MAC  --- 22 message 32 [0 ffffffff 7 800] ------- [7:255 -1:255 32 0] 
r 12.481042165 _4_ RTR  --- 22 message 32 [0 ffffffff 7 800] ------- [7:255 -1:255 32 0] 
r 12.481042424 _8_ RTR  --- 22 message 32 [0 ffffffff 7 800] ------- [7:255 -1:255 32 0] 
r 12.481042528 _6_ RTR  --- 22 message 32 [0 ffffffff 7 800] ------- [7:255 -1:255 32 0] 
r 12.481042534 _5_ RTR  --- 22 message 32 [0 ffffffff 7 800] ------- [7:255 -1:255 32 0] 
s 12.481367165 _4_ MAC  --- 20 message 90 [0 ffffffff 4 800] ------- [4:255 -1:255 32 0] 
r 12.482087532 _7_ MAC  --- 20 message 32 [0 ffffffff 4 800] ------- [4:255 -1:255 32 0] 
r 12.482087650 _5_ MAC  --- 20 message 32 [0 ffffffff 4 800] ------- [4:255 -1:255 32 0] 
r 12.482087655 _6_ MAC  --- 20 message 32 [0 ffffffff 4 800] ------- [4:255 -1:255 32 0] 
r 12.482087917 _8_ MAC  --- 20 message 32 [0 ffffffff 4 800] ------- [4:255 -1:255 32 0] 
r 12.482087948 _2_ MAC  --- 20 message 32 [0 ffffffff 4 800] ------- [4:255 -1:255 32 0] 
r 12.482112532 _7_ RTR  --- 20 message 32 [0 ffffffff 4 800] ------- [4:255 -1:255 32 0] 
r 12.482112650 _5_ RTR  --- 20 message 32 [0 ffffffff 4 800] ------- [4:255 -1:255 32 0] 
r 12.482112655 _6_ RTR  --- 20 message 32 [0 ffffffff 4 800] ------- [4:255 -1:255 32 0] 
r 12.482112917 _8_ RTR  --- 20 message 32 [0 ffffffff 4 800] ------- [4:255 -1:255 32 0] 
r 12.482112948 _2_ RTR  --- 20 message 32 [0 ffffffff 4 800] ------- [4:255 -1:255 32 0] 
s 12.485263664 _1_ RTR  --- 21 message 32 [0 0 0 0] ------- [1:255 -1:255 32 0] 
s 12.485458664 _1_ MAC  --- 21 message 90 [0 ffffffff 1 800] ------- [1:255 -1:255 32 0] 
r 12.486179166 _6_ MAC  --- 21 message 32 [0 ffffffff 1 800] ------- [1:255 -1:255 32 0] 
r 12.486179365 _2_ MAC  --- 21 message 32 [0 ffffffff 1 800] ------- [1:255 -1:255 32 0] 
r 12.486179442 _0_ MAC  --- 21 message 32 [0 ffffffff 1 800] ------- [1:255 -1:255 32 0] 
r 12.486204166 _6_ RTR  --- 21 message 32 [0 ffffffff 1 800] ------- [1:255 -1:255 32 0] 
r 12.486204365 _2_ RTR  --- 21 message 32 [0 ffffffff 1 800] ------- [1:255 -1:255 32 0] 
r 12.486204442 _0_ RTR  --- 21 message 32 [0 ffffffff 1 800] ------- [1:255 -1:255 32 0] 
s 12.628557241 _9_ RTR  --- 24 message 32 [0 0 0 0] ------- [9:255 -1:255 32 0] 
s 12.628892241 _9_ MAC  --- 24 message 90 [0 ffffffff 9 800] ------- [9:255 -1:255 32 0] 
r 12.629612679 _8_ MAC  --- 24 message 32 [0 ffffffff 9 800] ------- [9:255 -1:255 32 0] 
r 12.629613024 _5_ MAC  --- 24 message 32 [0 ffffffff 9 800] ------- [9:255 -1:255 32 0] 
r 12.629637679 _8_ RTR  --- 24 message 32 [0 ffffffff 9 800] ------- [9:255 -1:255 32 0] 
r 12.629638024 _5_ RTR  --- 24 message 32 [0 ffffffff 9 800] ------- [9:255 -1:255 32 0] 
s 12.631695871 _5_ RTR  --- 23 message 32 [0 0 0 0] ------- [5:255 -1:255 32 0] 
s 12.631830871 _5_ MAC  --- 23 message 90 [0 ffffffff 5 800] ------- [5:255 -1:255 32 0] 
r 12.632551350 _3_ MAC  --- 23 message 32 [0 ffffffff 5 800] ------- [5:255 -1:255 32 0] 
r 12.632551356 _4_ MAC  --- 23 message 32 [0 ffffffff 5 800] ------- [5:255 -1:255 32 0] 
r 12.632551558 _8_ MAC  --- 23 message 32 [0 ffffffff 5 800] ------- [5:255 -1:255 32 0] 
r 12.632551562 _2_ MAC  --- 23 message 32 [0 ffffffff 5 800] ------- [5:255 -1:255 32 0] 
r 12.632551608 _7_ MAC  --- 23 message 32 [0 ffffffff 5 800] ------- [5:255 -1:255 32 0] 
r 12.632551654 _9_ MAC  --- 23 message 32 [0 ffffffff 5 800] ------- [5:255 -1:255 32 0] 
r 12.632576350 _3_ RTR  --- 23 message 32 [0 ffffffff 5 800] ------- [5:255 -1:255 32 0] 
r 12.632576356 _4_ RTR  --- 23 message 32 [0 ffffffff 5 800] ------- [5:255 -1:255 32 0] 
r 12.632576558 _8_ RTR  --- 23 message 32 [0 ffffffff 5 800] ------- [5:255 -1:255 32 0] 
r 12.632576562 _2_ RTR  --- 23 message 32 [0 ffffffff 5 800] ------- [5:255 -1:255 32 0] 
r 12.632576608 _7_ RTR  --- 23 message 32 [0 ffffffff 5 800] ------- [5:255 -1:255 32 0] 
r 12.632576654 _9_ RTR  --- 23 message 32 [0 ffffffff 5 800] ------- [5:255 -1:255 32 0] 
s 12.644249011 _8_ RTR  --- 25 message 32 [0 0 0 0] ------- [8:255 -1:255 32 0] 
s 12.644444011 _8_ MAC  --- 25 message 90 [0 ffffffff 8 800] ------- [8:255 -1:255 32 0] 
r 12.645164448 _9_ MAC  --- 25 message 32 [0 ffffffff 8 800] ------- [8:255 -1:255 32 0] 
r 12.645164636 _7_ MAC  --- 25 message 32 [0 ffffffff 8 800] ------- [8:255 -1:255 32 0] 
r 12.645164697 _5_ MAC  --- 25 message 32 [0 ffffffff 8 800] ------- [8:255 -1:255 32 0] 
r 12.645164763 _4_ MAC  --- 25 message 32 [0 ffffffff 8 800] ------- [8:255 -1:255 32 0] 
r 12.645189448 _9_ RTR  --- 25 message 32 [0 ffffffff 8 800] ------- [8:255 -1:255 32 0] 
r 12.645189636 _7_ RTR  --- 25 message 32 [0 ffffffff 8 800] ------- [8:255 -1:255 32 0] 
r 12.645189697 _5_ RTR  --- 25 message 32 [0 ffffffff 8 800] ------- [8:255 -1:255 32 0] 
r 12.645189763 _4_ RTR  --- 25 message 32 [0 ffffffff 8 800] ------- [8:255 -1:255 32 0] 
s 12.698291635 _4_ RTR  --- 26 message 56 [0 0 0 0] ------- [4:255 -1:255 32 0] 
s 12.698966635 _4_ MAC  --- 26 message 114 [0 ffffffff 4 800] ------- [4:255 -1:255 32 0] 
r 12.699879002 _7_ MAC  --- 26 message 56 [0 ffffffff 4 800] ------- [4:255 -1:255 32 0] 
r 12.699879119 _5_ MAC  --- 26 message 56 [0 ffffffff 4 800] ------- [4:255 -1:255 32 0] 
r 12.699879125 _6_ MAC  --- 26 message 56 [0 ffffffff 4 800] ------- [4:255 -1:255 32 0] 
r 12.699879387 _8_ MAC  --- 26 message 56 [0 ffffffff 4 800] ------- [4:255 -1:255 32 0] 
r 12.699879411 _2_ MAC  --- 26 message 56 [0 ffffffff 4 800] ------- [4:255 -1:255 32 0] 
r 12.699904002 _7_ RTR  --- 26 message 56 [0 ffffffff 4 800] ------- [4:255 -1:255 32 0] 
r 12.699904119 _5_ RTR  --- 26 message 56 [0 ffffffff 4 800] ------- [4:255 -1:255 32 0] 
r 12.699904125 _6_ RTR  --- 26 message 56 [0 ffffffff 4 800] ------- [4:255 -1:255 32 0] 
r 12.699904387 _8_ RTR  --- 26 message 56 [0 ffffffff 4 800] ------- [4:255 -1:255 32 0] 
r 12.699904411 _2_ RTR  --- 26 message 56 [0 ffffffff 4 800] ------- [4:255 -1:255 32 0] 
s 12.897918675 _3_ RTR  --- 27 message 32 [0 0 0 0] ------- [3:255 -1:255 32 0] 
s 12.898293675 _3_ MAC  --- 27 message 90 [0 ffffffff 3 800] ------- [3:255 -1:255 32 0] 
r 12.899014154 _5_ MAC  --- 27 message 32 [0 ffffffff 3 800] ------- [3:255 -1:255 32 0] 
r 12.899014381 _2_ MAC  --- 27 message 32 [0 ffffffff 3 800] ------- [3:255 -1:255 32 0] 
r 12.899039154 _5_ RTR  --- 27 message 32 [0 ffffffff 3 800] ------- [3:255 -1:255 32 0] 
r 12.899039381 _2_ RTR  --- 27 message 32 [0 ffffffff 3 800] ------- [3:255 -1:255 32 0] 
s 13.019021879 _1_ RTR  --- 28 message 44 [0 0 0 0] ------- [1:255 -1:255 32 0] 
s 13.019136879 _1_ MAC  --- 28 message 102 [0 ffffffff 1 800] ------- [1:255 -1:255 32 0] 
r 13.019953381 _6_ MAC  --- 28 message 44 [0 ffffffff 1 800] ------- [1:255 -1:255 32 0] 
r 13.019953574 _2_ MAC  --- 28 message 44 [0 ffffffff 1 800] ------- [1:255 -1:255 32 0] 
r 13.019953657 _0_ MAC  --- 28 message 44 [0 ffffffff 1 800] ------- [1:255 -1:255 32 0] 
r 13.019978381 _6_ RTR  --- 28 message 44 [0 ffffffff 1 800] ------- [1:255 -1:255 32 0] 
r 13.019978574 _2_ RTR  --- 28 message 44 [0 ffffffff 1 800] ------- [1:255 -1:255 32 0] 
r 13.019978657 _0_ RTR  --- 28 message 44 [0 ffffffff 1 800] ------- [1:255 -1:255 32 0] 
s 13.027816648 _6_ RTR  --- 29 message 32 [0 0 0 0] ------- [6:255 -1:255 32 0] 
s 13.028051648 _6_ MAC  --- 29 message 90 [0 ffffffff 6 800] ------- [6:255 -1:255 32 0] 
r 13.028772139 _4_ MAC  --- 29 message 32 [0 ffffffff 6 800] ------- [6:255 -1:255 32 0] 
r 13.028772150 _1_ MAC  --- 29 message 32 [0 ffffffff 6 800] ------- [6:255 -1:255 32 0] 
r 13.028772358 _2_ MAC  --- 29 message 32 [0 ffffffff 6 800] ------- [6:255 -1:255 32 0] 
r 13.028772379 _7_ MAC  --- 29 message 32 [0 ffffffff 6 800] ------- [6:255 -1:255 32 0] 
r 13.028797139 _4_ RTR  --- 29 message 32 [0 ffffffff 6 800] ------- [6:255 -1:255 32 0] 
r 13.028797150 _1_ RTR  --- 29 message 32 [0 ffffffff 6 800] ------- [6:255 -1:255 32 0] 
r 13.028797358 _2_ RTR  --- 29 message 32 [0 ffffffff 6 800] ------- [6:255 -1:255 32 0] 
r 13.028797379 _7_ RTR  --- 29 message 32 [0 ffffffff 6 800] ------- [6:255 -1:255 32 0] 
s 13.439216836 _0_ RTR  --- 30 message 32 [0 0 0 0] ------- [0:255 -1:255 32 0] 
s 13.439411836 _0_ MAC  --- 30 message 90 [0 ffffffff 0 800] ------- [0:255 -1:255 32 0] 
r 13.440132589 _2_ MAC  --- 30 message 32 [0 ffffffff 0 800] ------- [0:255 -1:255 32 0] 
r 13.440132615 _1_ MAC  --- 30 message 32 [0 ffffffff 0 800] ------- [0:255 -1:255 32 0] 
r 13.440157589 _2_ RTR  --- 30 message 32 [0 ffffffff 0 800] ------- [0:255 -1:255 32 0] 
r 13.440157615 _1_ RTR  --- 30 message 32 [0 ffffffff 0 800] ------- [0:255 -1:255 32 0] 
s 13.478348022 _7_ RTR  --- 31 message 32 [0 0 0 0] ------- [7:255 -1:255 32 0] 
s 13.478423022 _7_ MAC  --- 31 message 90 [0 ffffffff 7 800] ------- [7:255 -1:255 32 0] 
r 13.479143389 _4_ MAC  --- 31 message 32 [0 ffffffff 7 800] ------- [7:255 -1:255 32 0] 
r 13.479143648 _8_ MAC  --- 31 message 32 [0 ffffffff 7 800] ------- [7:255 -1:255 32 0] 
r 13.479143753 _6_ MAC  --- 31 message 32 [0 ffffffff 7 800] ------- [7:255 -1:255 32 0] 
r 13.479143759 _5_ MAC  --- 31 message 32 [0 ffffffff 7 800] ------- [7:255 -1:255 32 0] 
r 13.479168389 _4_ RTR  --- 31 message 32 [0 ffffffff 7 800] ------- [7:255 -1:255 32 0] 
r 13.479168648 _8_ RTR  --- 31 message 32 [0 ffffffff 7 800] ------- [7:255 -1:255 32 0] 
r 13.479168753 _6_ RTR  --- 31 message 32 [0 ffffffff 7 800] ------- [7:255 -1:255 32 0] 
r 13.479168759 _5_ RTR  --- 31 message 32 [0 ffffffff 7 800] ------- [7:255 -1:255 32 0] 
s 13.617974180 _2_ RTR  --- 32 message 32 [0 0 0 0] ------- [2:255 -1:255 32 0] 
s 13.618549180 _2_ MAC  --- 32 message 90 [0 ffffffff 2 800] ------- [2:255 -1:255 32 0] 
r 13.619269870 _5_ MAC  --- 32 message 32 [0 ffffffff 2 800] ------- [2:255 -1:255 32 0] 
r 13.619269875 _1_ MAC  --- 32 message 32 [0 ffffffff 2 800] ------- [2:255 -1:255 32 0] 
r 13.619269886 _3_ MAC  --- 32 message 32 [0 ffffffff 2 800] ------- [2:255 -1:255 32 0] 
r 13.619269890 _6_ MAC  --- 32 message 32 [0 ffffffff 2 800] ------- [2:255 -1:255 32 0] 
r 13.619269933 _0_ MAC  --- 32 message 32 [0 ffffffff 2 800] ------- [2:255 -1:255 32 0] 
r 13.619269956 _4_ MAC  --- 32 message 32 [0 ffffffff 2 800] ------- [2:255 -1:255 32 0] 
r 13.619294870 _5_ RTR  --- 32 message 32 [0 ffffffff 2 800] ------- [2:255 -1:255 32 0] 
r 13.619294875 _1_ RTR  --- 32 message 32 [0 ffffffff 2 800] ------- [2:255 -1:255 32 0] 
r 13.619294886 _3_ RTR  --- 32 message 32 [0 ffffffff 2 800] ------- [2:255 -1:255 32 0] 
r 13.619294890 _6_ RTR  --- 32 message 32 [0 ffffffff 2 800] ------- [2:255 -1:255 32 0] 
r 13.619294933 _0_ RTR  --- 32 message 32 [0 ffffffff 2 800] ------- [2:255 -1:255 32 0] 
r 13.619294956 _4_ RTR  --- 32 message 32 [0 ffffffff 2 800] ------- [2:255 -1:255 32 0] 
s 13.624151196 _8_ RTR  --- 33 message 44 [0 0 0 0] ------- [8:255 -1:255 32 0] 
s 13.624386196 _8_ MAC  --- 33 message 102 [0 ffffffff 8 800] ------- [8:255 -1:255 32 0] 
r 13.625202633 _9_ MAC  --- 33 message 44 [0 ffffffff 8 800] ------- [8:255 -1:255 32 0] 
r 13.625202821 _7_ MAC  --- 33 message 44 [0 ffffffff 8 800] ------- [8:255 -1:255 32 0] 
r 13.625202882 _5_ MAC  --- 33 message 44 [0 ffffffff 8 800] ------- [8:255 -1:255 32 0] 
r 13.625202948 _4_ MAC  --- 33 message 44 [0 ffffffff 8 800] ------- [8:255 -1:255 32 0] 
r 13.625227633 _9_ RTR  --- 33 message 44 [0 ffffffff 8 800] ------- [8:255 -1:255 32 0] 
r 13.625227821 _7_ RTR  --- 33 message 44 [0 ffffffff 8 800] ------- [8:255 -1:255 32 0] 
r 13.625227882 _5_ RTR  --- 33 message 44 [0 ffffffff 8 800] ------- [8:255 -1:255 32 0] 
r 13.625227948 _4_ RTR  --- 33 message 44 [0 ffffffff 8 800] ------- [8:255 -1:255 32 0] 
s 13.632241244 _5_ RTR  --- 34 message 56 [0 0 0 0] ------- [5:255 -1:255 32 0] 
s 13.632416244 _5_ MAC  --- 34 message 114 [0 ffffffff 5 800] ------- [5:255 -1:255 32 0] 
r 13.633328723 _3_ MAC  --- 34 message 56 [0 ffffffff 5 800] ------- [5:255 -1:255 32 0] 
r 13.633328728 _4_ MAC  --- 34 message 56 [0 ffffffff 5 800] ------- [5:255 -1:255 32 0] 
r 13.633328930 _8_ MAC  --- 34 message 56 [0 ffffffff 5 800] ------- [5:255 -1:255 32 0] 
r 13.633328933 _2_ MAC  --- 34 message 56 [0 ffffffff 5 800] ------- [5:255 -1:255 32 0] 
r 13.633328980 _7_ MAC  --- 34 message 56 [0 ffffffff 5 800] ------- [5:255 -1:255 32 0] 
r 13.633329026 _9_ MAC  --- 34 message 56 [0 ffffffff 5 800] ------- [5:255 -1:255 32 0] 
r 13.633353723 _3_ RTR  --- 34 message 56 [0 ffffffff 5 800] ------- [5:255 -1:255 32 0] 
r 13.633353728 _4_ RTR  --- 34 message 56 [0 ffffffff 5 800] ------- [5:255 -1:255 32 0] 
r 13.633353930 _8_ RTR  --- 34 message 56 [0 ffffffff 5 800] ------- [5:255 -1:255 32 0] 
r 13.633353933 _2_ RTR  --- 34 message 56 [0 ffffffff 5 800] ------- [5:255 -1:255 32 0] 
r 13.633353980 _7_ RTR  --- 34 message 56 [0 ffffffff 5 800] ------- [5:255 -1:255 32 0] 
r 13.633354026 _9_ RTR  --- 34 message 56 [0 ffffffff 5 800] ------- [5:255 -1:255 32 0] 
s 13.634540620 _9_ RTR  --- 35 message 32 [0 0 0 0] ------- [9:255 -1:255 32 0] 
s 13.635135620 _9_ MAC  --- 35 message 90 [0 ffffffff 9 800] ------- [9:255 -1:255 32 0] 
r 13.635856057 _8_ MAC  --- 35 message 32 [0 ffffffff 9 800] ------- [9:255 -1:255 32 0] 
r 13.635856402 _5_ MAC  --- 35 message 32 [0 ffffffff 9 800] ------- [9:255 -1:255 32 0] 
r 13.635881057 _8_ RTR  --- 35 message 32 [0 ffffffff 9 800] ------- [9:255 -1:255 32 0] 
r 13.635881402 _5_ RTR  --- 35 message 32 [0 ffffffff 9 800] ------- [9:255 -1:255 32 0] 
s 13.693583636 _4_ RTR  --- 36 message 44 [0 0 0 0] ------- [4:255 -1:255 32 0] 
s 13.693678636 _4_ MAC  --- 36 message 102 [0 ffffffff 4 800] ------- [4:255 -1:255 32 0] 
r 13.694495003 _7_ MAC  --- 36 message 44 [0 ffffffff 4 800] ------- [4:255 -1:255 32 0] 
r 13.694495121 _5_ MAC  --- 36 message 44 [0 ffffffff 4 800] ------- [4:255 -1:255 32 0] 
r 13.694495127 _6_ MAC  --- 36 message 44 [0 ffffffff 4 800] ------- [4:255 -1:255 32 0] 
r 13.694495389 _8_ MAC  --- 36 message 44 [0 ffffffff 4 800] ------- [4:255 -1:255 32 0] 
r 13.694495412 _2_ MAC  --- 36 message 44 [0 ffffffff 4 800] ------- [4:255 -1:255 32 0] 
r 13.694520003 _7_ RTR  --- 36 message 44 [0 ffffffff 4 800] ------- [4:255 -1:255 32 0] 
r 13.694520121 _5_ RTR  --- 36 message 44 [0 ffffffff 4 800] ------- [4:255 -1:255 32 0] 
r 13.694520127 _6_ RTR  --- 36 message 44 [0 ffffffff 4 800] ------- [4:255 -1:255 32 0] 
r 13.694520389 _8_ RTR  --- 36 message 44 [0 ffffffff 4 800] ------- [4:255 -1:255 32 0] 
r 13.694520412 _2_ RTR  --- 36 message 44 [0 ffffffff 4 800] ------- [4:255 -1:255 32 0] 
s 13.888515116 _9_ RTR  --- 37 message 44 [0 0 0 0] ------- [9:255 -1:255 32 0] 
s 13.888610116 _9_ MAC  --- 37 message 102 [0 ffffffff 9 800] ------- [9:255 -1:255 32 0] 
r 13.889426554 _8_ MAC  --- 37 message 44 [0 ffffffff 9 800] ------- [9:255 -1:255 32 0] 
r 13.889426899 _5_ MAC  --- 37 message 44 [0 ffffffff 9 800] ------- [9:255 -1:255 32 0] 
r 13.889451554 _8_ RTR  --- 37 message 44 [0 ffffffff 9 800] ------- [9:255 -1:255 32 0] 
r 13.889451899 _5_ RTR  --- 37 message 44 [0 ffffffff 9 800] ------- [9:255 -1:255 32 0] 
s 13.897437460 _3_ RTR  --- 38 message 44 [0 0 0 0] ------- [3:255 -1:255 32 0] 
s 13.897952460 _3_ MAC  --- 38 message 102 [0 ffffffff 3 800] ------- [3:255 -1:255 32 0] 
r 13.898768939 _5_ MAC  --- 38 message 44 [0 ffffffff 3 800] ------- [3:255 -1:255 32 0] 
r 13.898769166 _2_ MAC  --- 38 message 44 [0 ffffffff 3 800] ------- [3:255 -1:255 32 0] 
r 13.898793939 _5_ RTR  --- 38 message 44 [0 ffffffff 3 800] ------- [3:255 -1:255 32 0] 
r 13.898794166 _2_ RTR  --- 38 message 44 [0 ffffffff 3 800] ------- [3:255 -1:255 32 0] 
M 14.00000 2 (1424.00, 1740.00, 0.00), (1361.00, 1839.00), 10.00
M 14.00000 5 (1625.00, 1789.00, 0.00), (1733.00, 1808.00), 10.00
s 14.033211248 _6_ RTR  --- 39 message 32 [0 0 0 0] ------- [6:255 -1:255 32 0] 
s 14.033606248 _6_ MAC  --- 39 message 90 [0 ffffffff 6 800] ------- [6:255 -1:255 32 0] 
r 14.034326739 _4_ MAC  --- 39 message 32 [0 ffffffff 6 800] ------- [6:255 -1:255 32 0] 
r 14.034326750 _1_ MAC  --- 39 message 32 [0 ffffffff 6 800] ------- [6:255 -1:255 32 0] 
r 14.034326959 _2_ MAC  --- 39 message 32 [0 ffffffff 6 800] ------- [6:255 -1:255 32 0] 
r 14.034326979 _7_ MAC  --- 39 message 32 [0 ffffffff 6 800] ------- [6:255 -1:255 32 0] 
r 14.034351739 _4_ RTR  --- 39 message 32 [0 ffffffff 6 800] ------- [6:255 -1:255 32 0] 
r 14.034351750 _1_ RTR  --- 39 message 32 [0 ffffffff 6 800] ------- [6:255 -1:255 32 0] 
r 14.034351959 _2_ RTR  --- 39 message 32 [0 ffffffff 6 800] ------- [6:255 -1:255 32 0] 
r 14.034351979 _7_ RTR  --- 39 message 32 [0 ffffffff 6 800] ------- [6:255 -1:255 32 0] 
s 14.045863924 _7_ RTR  --- 40 message 44 [0 0 0 0] ------- [7:255 -1:255 32 0] 
s 14.046078924 _7_ MAC  --- 40 message 102 [0 ffffffff 7 800] ------- [7:255 -1:255 32 0] 
r 14.046895291 _4_ MAC  --- 40 message 44 [0 ffffffff 7 800] ------- [7:255 -1:255 32 0] 
r 14.046895549 _8_ MAC  --- 40 message 44 [0 ffffffff 7 800] ------- [7:255 -1:255 32 0] 
r 14.046895654 _6_ MAC  --- 40 message 44 [0 ffffffff 7 800] ------- [7:255 -1:255 32 0] 
r 14.046895660 _5_ MAC  --- 40 message 44 [0 ffffffff 7 800] ------- [7:255 -1:255 32 0] 
r 14.046920291 _4_ RTR  --- 40 message 44 [0 ffffffff 7 800] ------- [7:255 -1:255 32 0] 
r 14.046920549 _8_ RTR  --- 40 message 44 [0 ffffffff 7 800] ------- [7:255 -1:255 32 0] 
r 14.046920654 _6_ RTR  --- 40 message 44 [0 ffffffff 7 800] ------- [7:255 -1:255 32 0] 
r 14.046920660 _5_ RTR  --- 40 message 44 [0 ffffffff 7 800] ------- [7:255 -1:255 32 0] 
s 14.616487913 _8_ RTR  --- 41 message 32 [0 0 0 0] ------- [8:255 -1:255 32 0] 
s 14.616662913 _8_ MAC  --- 41 message 90 [0 ffffffff 8 800] ------- [8:255 -1:255 32 0] 
r 14.617383350 _9_ MAC  --- 41 message 32 [0 ffffffff 8 800] ------- [8:255 -1:255 32 0] 
r 14.617383538 _7_ MAC  --- 41 message 32 [0 ffffffff 8 800] ------- [8:255 -1:255 32 0] 
r 14.617383579 _5_ MAC  --- 41 message 32 [0 ffffffff 8 800] ------- [8:255 -1:255 32 0] 
r 14.617383665 _4_ MAC  --- 41 message 32 [0 ffffffff 8 800] ------- [8:255 -1:255 32 0] 
r 14.617408350 _9_ RTR  --- 41 message 32 [0 ffffffff 8 800] ------- [8:255 -1:255 32 0] 
r 14.617408538 _7_ RTR  --- 41 message 32 [0 ffffffff 8 800] ------- [8:255 -1:255 32 0] 
r 14.617408579 _5_ RTR  --- 41 message 32 [0 ffffffff 8 800] ------- [8:255 -1:255 32 0] 
r 14.617408665 _4_ RTR  --- 41 message 32 [0 ffffffff 8 800] ------- [8:255 -1:255 32 0] 
s 14.626613267 _5_ RTR  --- 42 message 32 [0 0 0 0] ------- [5:255 -1:255 32 0] 
s 14.627248267 _5_ MAC  --- 42 message 90 [0 ffffffff 5 800] ------- [5:255 -1:255 32 0] 
r 14.627968754 _4_ MAC  --- 42 message 32 [0 ffffffff 5 800] ------- [5:255 -1:255 32 0] 
r 14.627968754 _3_ MAC  --- 42 message 32 [0 ffffffff 5 800] ------- [5:255 -1:255 32 0] 
r 14.627968933 _8_ MAC  --- 42 message 32 [0 ffffffff 5 800] ------- [5:255 -1:255 32 0] 
r 14.627968984 _2_ MAC  --- 42 message 32 [0 ffffffff 5 800] ------- [5:255 -1:255 32 0] 
r 14.627968996 _7_ MAC  --- 42 message 32 [0 ffffffff 5 800] ------- [5:255 -1:255 32 0] 
r 14.627969029 _9_ MAC  --- 42 message 32 [0 ffffffff 5 800] ------- [5:255 -1:255 32 0] 
r 14.627993754 _4_ RTR  --- 42 message 32 [0 ffffffff 5 800] ------- [5:255 -1:255 32 0] 